 Entering Link 1 = C:\G09W\l1.exe PID=      4304.
  
 Copyright (c) 1988,1990,1992,1993,1995,1998,2003,2009,2013,
            Gaussian, Inc.  All Rights Reserved.
  
 This is part of the Gaussian(R) 09 program.  It is based on
 the Gaussian(R) 03 system (copyright 2003, Gaussian, Inc.),
 the Gaussian(R) 98 system (copyright 1998, Gaussian, Inc.),
 the Gaussian(R) 94 system (copyright 1995, Gaussian, Inc.),
 the Gaussian 92(TM) system (copyright 1992, Gaussian, Inc.),
 the Gaussian 90(TM) system (copyright 1990, Gaussian, Inc.),
 the Gaussian 88(TM) system (copyright 1988, Gaussian, Inc.),
 the Gaussian 86(TM) system (copyright 1986, Carnegie Mellon
 University), and the Gaussian 82(TM) system (copyright 1983,
 Carnegie Mellon University). Gaussian is a federally registered
 trademark of Gaussian, Inc.
  
 This software contains proprietary and confidential information,
 including trade secrets, belonging to Gaussian, Inc.
  
 This software is provided under written license and may be
 used, copied, transmitted, or stored only in accord with that
 written license.
  
 The following legend is applicable only to US Government
 contracts under FAR:
  
                    RESTRICTED RIGHTS LEGEND
  
 Use, reproduction and disclosure by the US Government is
 subject to restrictions as set forth in subparagraphs (a)
 and (c) of the Commercial Computer Software - Restricted
 Rights clause in FAR 52.227-19.
  
 Gaussian, Inc.
 340 Quinnipiac St., Bldg. 40, Wallingford CT 06492
  
  
 ---------------------------------------------------------------
 Warning -- This program may not be used in any manner that
 competes with the business of Gaussian, Inc. or will provide
 assistance to any competitor of Gaussian, Inc.  The licensee
 of this program is prohibited from giving any competitor of
 Gaussian, Inc. access to this program.  By using this program,
 the user acknowledges that Gaussian, Inc. is engaged in the
 business of creating and licensing software in the field of
 computational chemistry and represents and warrants to the
 licensee that it is not a competitor of Gaussian, Inc. and that
 it will not use this program in any manner prohibited above.
 ---------------------------------------------------------------
  

 Cite this work as:
 Gaussian 09, Revision D.01,
 M. J. Frisch, G. W. Trucks, H. B. Schlegel, G. E. Scuseria, 
 M. A. Robb, J. R. Cheeseman, G. Scalmani, V. Barone, B. Mennucci, 
 G. A. Petersson, H. Nakatsuji, M. Caricato, X. Li, H. P. Hratchian, 
 A. F. Izmaylov, J. Bloino, G. Zheng, J. L. Sonnenberg, M. Hada, 
 M. Ehara, K. Toyota, R. Fukuda, J. Hasegawa, M. Ishida, T. Nakajima, 
 Y. Honda, O. Kitao, H. Nakai, T. Vreven, J. A. Montgomery, Jr., 
 J. E. Peralta, F. Ogliaro, M. Bearpark, J. J. Heyd, E. Brothers, 
 K. N. Kudin, V. N. Staroverov, T. Keith, R. Kobayashi, J. Normand, 
 K. Raghavachari, A. Rendell, J. C. Burant, S. S. Iyengar, J. Tomasi, 
 M. Cossi, N. Rega, J. M. Millam, M. Klene, J. E. Knox, J. B. Cross, 
 V. Bakken, C. Adamo, J. Jaramillo, R. Gomperts, R. E. Stratmann, 
 O. Yazyev, A. J. Austin, R. Cammi, C. Pomelli, J. W. Ochterski, 
 R. L. Martin, K. Morokuma, V. G. Zakrzewski, G. A. Voth, 
 P. Salvador, J. J. Dannenberg, S. Dapprich, A. D. Daniels, 
 O. Farkas, J. B. Foresman, J. V. Ortiz, J. Cioslowski, 
 and D. J. Fox, Gaussian, Inc., Wallingford CT, 2013.
 
 ******************************************
 Gaussian 09:  IA32W-G09RevD.01 24-Apr-2013
                09-Jul-2019 
 ******************************************
 %nprocshared=4
 Will use up to    4 processors via shared memory.
 %mem=1600MB
 ----------------------------------------------------
 #p opt b3lyp/6-311++g(d,p) pop=nbo geom=connectivity
 ----------------------------------------------------
 1/14=-1,18=20,19=15,26=3,38=1,57=2/1,3;
 2/9=110,12=2,17=6,18=5,40=1/2;
 3/5=4,6=6,7=1111,11=2,16=1,25=1,30=1,71=1,74=-5/1,2,3;
 4//1;
 5/5=2,38=5/2;
 6/7=2,8=2,9=2,10=2,28=1,40=1/1,7;
 7//1,2,3,16;
 1/14=-1,18=20,19=15,26=3/3(2);
 2/9=110/2;
 99//99;
 2/9=110/2;
 3/5=4,6=6,7=1111,11=2,16=1,25=1,30=1,71=1,74=-5/1,2,3;
 4/5=5,16=3,69=1/1;
 5/5=2,38=5/2;
 7//1,2,3,16;
 1/14=-1,18=20,19=15,26=3/3(-5);
 2/9=110/2;
 6/7=2,8=2,9=2,10=2,19=2,28=1,40=1/1,7;
 99/9=1/99;
 Leave Link    1 at Tue Jul 09 21:10:52 2019, MaxMem=   209715200 cpu:         0.0
 (Enter C:\G09W\l101.exe)
 -------
 10b.log
 -------
 Symbolic Z-matrix:
 Charge =  0 Multiplicity = 1
 C                    -1.4999   -1.96368  -1.16071 
 C                    -1.6513   -1.70494   0.19364 
 C                    -1.31707  -2.68191   1.11537 
 C                    -0.83226  -3.90582   0.68498 
 C                    -0.65679  -4.17375  -0.66646 
 C                    -0.99816  -3.182    -1.58013 
 N                    -2.19382  -0.46901   0.66054 
 C                    -1.78742   0.766     0.27477 
 C                    -2.53982   1.87148   0.17316 
 C                    -0.39791   1.19032  -0.00753 
 C                    -1.70706   3.00082  -0.22151 
 O                    -0.44131   2.5145   -0.34116 
 Cl                   -4.23007   2.00203   0.42991 
 O                    -1.97495   4.12666  -0.43853 
 C                     0.72462   0.49843   0.1064 
 C                     2.10212   0.97287  -0.12103 
 C                    -0.0887   -5.49313  -1.13272 
 C                     2.39451   2.04114  -0.97332 
 C                     3.69393   2.45181  -1.1951 
 C                     4.74488   1.80334  -0.56945 
 C                     4.48855   0.74057   0.27611 
 C                     3.18406   0.33497   0.48954 
 Cl                    2.93866  -1.01242   1.57874 
 H                     0.61795  -0.52054   0.41298 
 H                    -1.77503  -1.21583  -1.88315 
 H                    -1.43327  -2.47869   2.16477 
 H                    -0.57972  -4.65555   1.41435 
 H                    -0.88205  -3.36634  -2.63409 
 H                    -3.15446  -0.50707   0.92416 
 H                    -0.523    -5.7952   -2.07923 
 H                     0.98666  -5.42249  -1.2716 
 H                    -0.27664  -6.27939  -0.41076 
 H                     1.59074   2.5504   -1.46488 
 H                     3.88324   3.27704  -1.85738 
 H                     5.75901   2.11892  -0.73622 
 H                     5.28967   0.22606   0.77177 
 
 NAtoms=     36 NQM=       36 NQMF=       0 NMMI=      0 NMMIF=      0
                NMic=       0 NMicF=      0.
                    Isotopes and Nuclear Properties:
 (Nuclear quadrupole moments (NQMom) in fm**2, nuclear magnetic moments (NMagM)
  in nuclear magnetons)

  Atom         1           2           3           4           5           6           7           8           9          10
 IAtWgt=          12          12          12          12          12          12          14          12          12          12
 AtmWgt=  12.0000000  12.0000000  12.0000000  12.0000000  12.0000000  12.0000000  14.0030740  12.0000000  12.0000000  12.0000000
 NucSpn=           0           0           0           0           0           0           2           0           0           0
 AtZEff=   0.0000000   0.0000000   0.0000000   0.0000000   0.0000000   0.0000000   0.0000000   0.0000000   0.0000000   0.0000000
 NQMom=    0.0000000   0.0000000   0.0000000   0.0000000   0.0000000   0.0000000   2.0440000   0.0000000   0.0000000   0.0000000
 NMagM=    0.0000000   0.0000000   0.0000000   0.0000000   0.0000000   0.0000000   0.4037610   0.0000000   0.0000000   0.0000000
 AtZNuc=   6.0000000   6.0000000   6.0000000   6.0000000   6.0000000   6.0000000   7.0000000   6.0000000   6.0000000   6.0000000

  Atom        11          12          13          14          15          16          17          18          19          20
 IAtWgt=          12          16          35          16          12          12          12          12          12          12
 AtmWgt=  12.0000000  15.9949146  34.9688527  15.9949146  12.0000000  12.0000000  12.0000000  12.0000000  12.0000000  12.0000000
 NucSpn=           0           0           3           0           0   (r)
                                                    118(v),535(r),152(v),523(r)
                                                    618(g),617(v),615(g),157(v)
                                                    459(r),205(r),501(r),409(r)
                                                    401(r),240(r)
    10. BD (   1) C   4 - C   5          1.97417    -0.72507  124(r),553(v),205(r),478(r)
                                                    623(g),618(g),523(r),496(r)
                                                    161(g),625(v),501(r),619(v)
                                                    474(r),535(r),239(r),136(v)
                                                    660(r),240(r),521(r),624(g)
                                                    135(v),373(r),659(r),226(r)
                                                    504(r),380(r),458(r),243(r)
                                                    522(r),265(r),477(r),654(r)
                                                    622(g),262(r),257(r),664(r)
                                                    459(r),610(r),186(v),498(r)
                                                    316(r),246(r),183(g),157(g)
                                                    382(v),557(r),567(r),169(g)
                                                    658(r),466(r),642(r),467(r)
                                                    494(r),401(r),451(r),208(r)
                                                    366(r),476(r),143(v),357(r)
                                                    224(r),460(r)
    11. BD (   2) C   4 - C   5          1.64757    -0.48900  257(r),553(v),478(r),239(r)
                                                    422(r),243(r),205(r),523(r)
                                                    535(r),124(r),501(r),642(r)
                                                    459(r),265(r),660(r),654(r)
                                                    567(r),373(r),262(r),380(r)
                                                    240(r),474(r),316(r),226(r)
                                                    521(r),161(g),458(r),407(r)
                                                    246(r),401(r),496(r),522(r)
                                                    504(r),659(r),498(r),409(r)
                                                    357(r),157(g),557(r),366(r)
                                                    610(r),404(r),513(r),361(r)
                                                    439(r),131(r),208(r),658(r)
                                                    589(r),444(r),451(r),178(g)
                                                    467(r),224(r),494(r),264(r)
                                                    460(r),603(r),276(r),650(r)
                                                    477(r),492(r),472(r),364(r)
                                                    221(r),285(r),355(r),655(r)
                                                    437(r),605(r),378(r),179(g)
                                                    241(r),282(r),413(r),367(r)
                                                    476(r),588(r),165(g),249(r)
                                                    445(r),552(v),368(r),358(r)
                                                    441(r),242(r),556(v),233(r)
                                                    231(r),341(r),412(r),469(r)
                                                    228(r),449(r),377(r),608(r)
                                                    657(r),269(r),359(r),443(r)
                                                    479(r),607(r),222(r),354(r)
                                                    183(g),468(r),374(r),402(r)
                                                    636(r),609(r),480(r),499(r)
                                                    635(r),143(v),495(r),201(v)
                                                    470(r),169(g),370(r),421(r)
                                                    503(r),287(r),290(r),399(r)
                                                    641(r),337(r),220(r),440(r)
                                                    473(r),491(r),266(r),375(r)
                                                    363(r),490(r),466(r),507(r)
                                                    456(r),250(r),442(r),475(r)
                                                    356(r),369(r),365(r),502(r)
                                                    279(r),410(r),372(r),462(r)
                                                    335(r),223(r),606(r),376(r)
                                                    592(r),281(r),288(r),438(r)
                                                    229(r),534(r),509(r),430(r)
                                                    526(r),225(r),403(r),471(r)
                                                    166(g),455(r),427(r),132(r)
                                                    244(r),312(r),587(r),487(r)
                                                    405(r),135(v),446(r),211(r)
                                                    656(r),481(r),452(r),637(r)
                                                    602(r),338(r),558(r),187(v)
                                                    500(r),340(r),454(r),594(r)
                                                    263(r),104(r),447(r),362(r)
                                                    251(r),352(r),336(r),237(r)
                                                    429(r),593(r),416(r),652(r)
                                                    188(v),272(r),191(v),230(r)
                                                    645(v),524(r),465(r),417(r)
                                                    120(r),212(r),260(r),591(r)
                                                    125(r),333(r),575(r),141(v)
                                                    651(r),371(r),334(r),435(r)
                                                    274(r),247(r),107(r),436(r)
                                                    99(r),126(r),215(r),255(r)
                                                    520(r),493(r),164(g),103(r)
                                                    202(v),408(r),196(v),634(r)
                                                    433(r),140(v),349(r),360(r)
                                                    227(r),411(r),518(r),204(r)
                                                    597(r),616(v),310(r),234(r)
                                                    527(r),638(r),505(r),514(r)
                                                    428(r),483(r),122(r),127(r)
                                                    604(r),450(r),613(v),563(r)
                                                    389(v),286(r),158(g),415(r)
                                                    600(r),261(r),530(r),463(r)
                                                    485(r),344(r),332(r),649(r)
                                                    111(r),177(g),508(r),512(r)
                                                    121(r),171(g),387(v),133(r)
                                                    506(r),351(r),182(g),139(v)
                                                    448(r),213(r),353(r),275(r)
                                                    561(r),232(r),601(r),271(r)
                                                    664(r),112(r),173(g),252(r)
                                                    199(v),590(r),564(r),317(r)
                                                    197(v),420(r),653(r),305(r)
                                                    488(r),531(r),303(r),283(r)
                                                    644(v),482(r),629(r),304(r)
                                                    210(r),253(r),258(r),300(r)
                                                    565(r),144(v),209(r),568(r)
                                                    484(r),149(v),118(r),109(r)
                                                    622(g),517(r),461(r),268(r)
                                                    123(r),453(r),628(r),186(v)
                                                    174(g),540(r),350(r),560(r)
                                                    110(r),259(r),576(r),113(r)
                                                    296(r),106(r),579(r),207(r)
                                                    598(r),128(r),539(r),538(r)
                                                    548(r),419(r),457(r),248(r)
                                                    525(r),528(r),555(v),163(g)
                                                    146(v),585(r),571(r),423(r)
                                                    130(r),291(r),214(r),627(r)
                                                    621(g),114(r),615(v),267(r)
                                                    584(r),381(r),339(r),105(r)
                                                    137(v),663(r),159(g),238(r)
                                                    306(r),541(r),138(v),646(v)
                                                    547(r),574(r),533(r),643(r)
                                                    170(g),562(r),217(r),581(r)
                                                    630(r),424(r),168(g),542(r)
                                                    289(r),611(r),580(r),200(v)
                                                    614(r),150(v),418(r),117(r)
                                                    198(v)
    12. BD (   1) C   4 - H  29          1.97959    -0.54248  553(g),239(r),205(r),478(r)
                                                    243(r),523(r),257(r),501(r)
                                                    169(v),124(r),623(v),535(r)
                                                    660(r),496(r),615(v),654(r)
                                                    161(g),474(r),380(r),521(r)
                                                    642(r),459(r),265(r),240(r)
                                                    659(r),373(r),504(r),226(r)
                                                    477(r),522(r),316(r),422(r)
                                                    458(r),567(r),610(r),557(r)
                                                    658(r),262(r),664(r),498(r)
                                                    246(r),208(r),620(g),476(r)
                                                    466(r),366(r),467(r),460(r)
                                                    494(r),451(r),285(r),407(r)
                                                    357(r),224(r),135(v),556(g)
                                                    472(r),618(g),444(r),157(g)
                                                    264(r),513(r),401(r),603(r)
                                                    503(r),365(r),290(r),404(r)
                                                    364(r),650(r),655(r),287(r)
                                                    276(r),619(v),131(r),605(r)
    13. BD (   1) C   5 - C   6          1.97355    -0.71955  620(g),612(g),124(r),622(v)
                                                    614(v),103(v),624(g),625(g)
                                                    382(v),102(v),152(v),153(v)
                                                    646(v),664(r)
    14. BD (   1) C   5 - C  17          1.98194    -0.64672  664(r),205(r),124(r),243(r)
                                                    612(v),618(v),553(r),663(r)
                                                    620(g),478(r),623(g),239(r)
                                                    186(v),152(v),257(r),401(r)
                                                    422(r),178(g),644(g),523(r)
                                                    646(g),662(r)
    15. BD (   1) C   6 - H  30          1.97909    -0.54608  553(r),239(r),243(r),478(r)
                                                    205(r),257(r),664(r),124(r)
                                                    523(r),422(r),663(r),501(r)
                                                    535(r),459(r),654(r),265(r)
                                                    660(r),240(r),262(r),642(r)
                                                    373(r),521(r),567(r),474(r)
                                                    380(r),226(r),161(r),458(r)
                                                    401(r),316(r),504(r),522(r)
                                                    659(r),407(r),246(r),557(g)
                                                    357(r),498(r),366(r),157(r)
                                                    610(r),404(r),409(r),496(r)
                                                    178(v),513(r),131(r),439(r)
                                                    589(r),208(r),264(r),451(r)
                                                    224(r),467(r),444(r),361(r)
                                                    494(r),477(r),285(r),460(r)
                                                    492(r),658(r),650(r),276(r)
                                                    472(r),603(r),179(v),221(r)
                                                    364(r),241(r),355(r),242(r)
                                                    476(r),378(r),605(r),437(r)
                                                    413(r),367(r),183(v),282(r)
                                                    655(r),249(r),165(r),233(r)
                                                    441(r),368(r),588(r),657(r)
                                                    341(r),231(r),469(r),412(r)
                                                    620(v),479(r),608(r),377(r)
                                                    228(r),359(r),358(r),449(r)
                                                    445(r),552(r),443(r),607(r)
                                                    354(r),143(r),635(r),503(r)
                                                    499(r),609(r),468(r),374(r)
                                                    402(r),636(r),222(r),495(r)
                                                    269(r),480(r),470(r),287(r)
                                                    611(v),201(g),399(r),421(r)
                                                    337(r),370(r),290(r),220(r)
                                                    440(r),490(r),473(r),363(r)
                                                    266(r),641(r),375(r),491(r)
                                                    466(r),556(r),456(r),507(r)
                                                    442(r),250(r),475(r),369(r)
                                                    502(r),662(r),372(r),229(r)
                                                    288(r),356(r),335(r),606(r)
                                                    279(r),462(r),438(r),376(r)
                                                    592(r),509(r),410(r),223(r)
                                                    281(r),526(r),365(r),534(r)
                                                    430(r),455(r),225(r),471(r)
                                                    135(r),132(r),427(r),244(r)
                                                    403(r),587(r),166(r),107(v)
                                                    312(r),405(r),446(r),338(r)
                                                    487(r),481(r),211(r),263(r)
                                                    452(r),187(g),623(g),602(r)
                                                    594(r),558(g),188(g),340(r)
                                                    637(r),612(g),454(r),102(v)
                                                    251(r),362(r),447(r),656(r)
                                                    500(r),104(v),429(r),237(r)
                                                    593(r),336(r),352(r),141(r)
                                   16,18,33)          1.358          estimate D2E/DX2                !
 ! D65   D(22,16,18,19)         -0.3699         estimate D2E/DX2                !
 ! D66   D(22,16,18,33)        179.5763         estimate D2E/DX2                !
 ! D67   D(15,16,22,21)        178.7652         estimate D2E/DX2                !
 ! D68   D(15,16,22,23)         -1.8736         estimate D2E/DX2                !
 ! D69   D(18,16,22,21)          0.5138         estimate D2E/DX2                !
 ! D70   D(18,16,22,23)        179.875          estimate D2E/DX2                !
 ! D71   D(16,18,19,20)          0.0471         estimate D2E/DX2                !
 ! D72   D(16,18,19,34)        179.97           estimate D2E/DX2                !
 ! D73   D(33,18,19,20)       -179.899          estimate D2E/DX2                !
 ! D74   D(33,18,19,34)          0.0239         estimate D2E/DX2                !
 ! D75   D(18,19,20,21)          0.1527         estimate D2E/DX2                !
 ! D76   D(18,19,20,35)       -179.8917         estimate D2E/DX2                !
 ! D77   D(34,19,20,21)       -179.7696         estimate D2E/DX2                !
 ! D78   D(34,19,20,35)          0.186          estimate D2E/DX2                !
 ! D79   D(19,20,21,22)         -0.0139         estimate D2E/DX2                !
 ! D80   D(19,20,21,36)       -179.8932         estimate D2E/DX2                !
 ! D81   D(35,20,21,22)       -179.9699         estimate D2E/DX2                !
 ! D82   D(35,20,21,36)          0.1508         estimate D2E/DX2                !
 ! D83   D(20,21,22,16)         -0.3311         estimate D2E/DX2                !
 ! D84   D(20,21,22,23)       -179.7165         estimate D2E/DX2                !
 ! D85   D(36,21,22,16)        179.5498         estimate D2E/DX2                !
 ! D86   D(36,21,22,23)          0.1644         estimate D2E/DX2                !
 --------------------------------------------------------------------------------
 Trust Radius=3.00D-01 FncErr=1.00D-07 GrdErr=1.00D-06
 Number of steps in this run=    195 maximum allowed number of steps=    216.
 GradGradGradGradGradGradGradGradGradGradGradGradGradGradGradGradGradGrad

 Leave Link  103 at Tue Jul 09 21:10:52 2019, MaxMem=   209715200 cpu:         0.0
 (Enter C:\G09W\l202.exe)
                          Input orientation:                          
 ---------------------------------------------------------------------
 Center     Atomic      Atomic             Coordinates (Angstroms)
 Number     Number       Type             X           Y           Z
 ---------------------------------------------------------------------
      1          6           0       -1.499895   -1.963679   -1.160709
      2          6           0       -1.651303   -1.704935    0.193640
      3          6           0       -1.317071   -2.681914    1.115366
      4          6           0       -0.832257   -3.905823    0.684984
      5          6           0       -0.656786   -4.173751   -0.666461
      6          6           0       -0.998158   -3.181997   -1.580128
      7          7           0       -2.193817   -0.469006    0.660537
      8          6           0       -1.787423    0.766004    0.274767
      9          6           0       -2.539819    1.871483    0.173159
     10          6           0       -0.397910    1.190320   -0.007525
     11          6           0       -1.707056    3.000823   -0.221510
     12          8           0       -0.441311    2.514501   -0.341164
     13         17           0       -4.230072    2.002027    0.429913
     14          8           0       -1.974950    4.126661   -0.438531
     15          6           0        0.724620    0.498428    0.106395
     16          6           0        2.102117    0.972868   -0.121032
     17          6           0       -0.088697   -5.493126   -1.132723
     18          6           0        2.394505    2.041138   -0.973321
     19          6           0        3.693934    2.451811   -1.195097
     20          6           0        4.744876    1.803340   -0.569449
     21          6           0        4.488546    0.740573    0.276106
     22          6           0        3.184063    0.334967    0.489540
     23         17           0        2.938660   -1.012424    1.578739
     24          1           0        0.617951   -0.520543    0.412976
     25          1           0       -1.775030   -1.215825   -1.883151
     26          1           0       -1.433269   -2.478692    2.164773
     27          1           0       -0.579715   -4.655554    1.414346
     28          1           0       -0.882051   -3.366344   -2.634092
     29          1           0       -3.154464   -0.507065    0.924159
     30          1           0       -0.523004   -5.795201   -2.079233
     31          1           0        0.986660   -5.422493   -1.271600
     32          1           0       -0.276642   -6.279386   -0.410757
     33          1           0        1.590744    2.550397   -1.464875
     34          1           0        3.883236    3.277043   -1.857382
     35          1           0        5.759006    2.118920   -0.736219
     36          1           0        5.289668    0.226055    0.771766
 ---------------------------------------------------------------------
                    Distance matrix (angstroms):
                    1          2          3          4          5
     1  C    0.000000
     2  C    1.387132   0.000000
     3  C    2.393701   1.384116   0.000000
     4  C    2.761204   2.399201   1.385001   0.000000
     5  C    2.416512   2.797122   2.415877   1.388877   0.000000
     6  C    1.382733   2.398867   2.759978   2.383732   1.391006
     7  N    2.456117   1.428228   2.423327   3.696776   4.224751
     8  C    3.097488   2.476015   3.579941   4.786083   5.154166
     9  C    4.191553   3.685193   4.807940   6.046073   6.387146
    10  C    3.534390   3.161323   4.135207   5.161289   5.410589
    11  C    5.056806   4.724364   5.850882   7.020596   7.264679
    12  O    4.674008   4.421961   5.467281   6.513553   6.699624
    13  Cl   5.070579   4.521885   5.558302   6.820037   7.218770
    14  O    6.151379   5.874683   7.014563   8.190777   8.407517
    15  C    3.551900   3.241517   3.911662   4.707022   4.933036
    16  C    4.762219   4.621451   5.155284   5.749942   5.864872
    17  C    3.801218   4.307130   3.803383   2.525168   1.510257
    18  C    5.589278   5.635905   6.359688   6.966227   6.930324
    19  C    6.817154   6.912213   7.536813   8.027491   7.943947
    20  C    7.316911   7.334944   7.726791   8.079143   8.056859
    21  C    6.725983   6.609467   6.791389   7.075812   7.177287
    22  C    5.472345   5.256379   5.454671   5.844085   6.034650
    23  Cl   5.301908   4.844154   4.594906   4.836359   5.287924
    24  H    3.007391   2.569126   2.984826   3.692860   4.016972
    25  H    1.075596   2.137194   3.369013   3.836695   3.388234
    26  H    3.365785   2.128756   1.075201   2.141890   3.389991
    27  H    3.837164   3.368171   2.127989   1.076031   2.137249
    28  H    2.126043   3.368694   3.836160   3.363002   2.138743
    29  H    3.034139   2.056221   2.853514   4.123276   4.713073
    30  H    4.059380   4.813448   4.530846   3.362482   2.154744
    31  H    4.261296   4.788112   4.302971   3.071965   2.150922
    32  H    4.547978   4.814623   4.043927   2.672669   2.154900
    33  H    5.479183   5.600838   6.518444   7.223268   7.134635
    34  H    7.545106   7.723854   8.449236   8.960640   8.805931
    35  H    8.339032   8.390422   8.749128   9.042239   8.986933
    36  H    7.391046   7.227727   7.226572   7.386333   7.535722
                    6          7          8          9         10
     6  C    0.000000
     7  N    3.716248   0.000000
     8  C    4.432864   1.356180   0.000000
     9  C    5.566722   2.415604   1.341085   0.000000
    10  C    4.685140   2.534749   1.480027   2.254862   0.000000
    11  C    6.369901   3.613123   2.290669   1.457624   2.244454
    12  O    5.856210   3.602221   2.290989   2.254271   1.366255
    13  Cl   6.431146   3.210222   2.741962   1.714619   3.941533
    14  O    7.461491   4.730329   3.440636   2.403970   3.360792
    15  C    4.399756   3.124144   2.531858   3.542076   1.323543
    16  C    5.385496   4.598358   3.915095   4.737259   2.512032
    17  C    2.523610   5.734901   6.636521   7.870883   6.784551
    18  C    6.257756   5.479326   4.546670   5.068605   3.074774
    19  C    7.341919   6.829360   5.920111   6.408477   4.443520
    20  C    7.671864   7.404180   6.667810   7.322765   5.209587
    21  C    6.995433   6.801827   6.276021   7.119513   4.915300
    22  C    5.843247   5.440331   4.994757   5.934964   3.716078
    23  Cl   5.493999   5.242205   5.215267   6.348725   4.301281
    24  H    3.696973   2.823116   2.731324   3.968729   2.033678
    25  H    2.135693   2.683928   2.929916   3.787451   3.347233
    26  H    3.835133   2.622975   3.771684   4.910703   4.387767
    27  H    3.363531   4.549806   5.670140   6.927104   6.019054
    28  H    1.076246   4.579288   5.133952   6.169577   5.281707
    29  H    4.251631   0.996889   1.977679   2.568906   3.368641
    30  H    2.702538   6.218224   7.084454   8.241290   7.287326
    31  H    3.009072   6.195613   6.955881   8.229549   6.873443
    32  H    3.388485   6.211582   7.238088   8.479363   7.481565
    33  H    6.290949   5.287445   4.197907   4.495067   2.815746
    34  H    8.100869   7.569899   6.558029   6.881448   5.109266
    35  H    8.629668   8.479132   7.733115   8.352167   6.269044
    36  H    7.528810   7.516517   7.115038   8.022882   5.821138
                   11         12         13         14         15
    11  C    0.000000
    12  O    1.361226   0.000000
    13  Cl   2.790619   3.900243   0.000000
    14  O    1.177445   2.227238   3.217738   0.000000
    15  C    3.504647   2.371551   5.187914   4.555074   0.000000
    16  C    4.316538   2.982301   6.438892   5.164271   1.474556
    17  C    8.694628   8.054377   8.704604   9.827520   6.172165
    18  C    4.278904   2.943730   6.771677   4.871093   2.516795
    19  C    5.515431   4.222959   8.101409   5.959342   3.785025
    20  C    6.571336   5.239695   9.032602   7.111330   4.280423
    21  C    6.613761   5.275541   8.810745   7.331649   3.775523
    22  C    5.615641   4.310890   7.599476   6.469442   2.494470
    23  Cl   6.397634   5.248755   7.861134   7.390747   3.058177
    24  H    4.267112   3.301856   5.465068   5.389314   1.069426
    25  H    4.532747   4.251101   4.661767   5.537965   3.625632
    26  H    5.982841   5.674123   5.559558   7.120484   4.213864
    27  H    7.909932   7.383133   7.656213   9.083344   5.474994
    28  H    6.858717   6.327409   7.029707   7.884164   5.002812
    29  H    3.963941   4.253481   2.774302   4.971880   4.089871
    30  H    9.067698   8.489918   8.990825  10.160876   6.778149
    31  H    8.905675   8.117924   9.232169  10.032521   6.084804
    32  H    9.391708   8.795704   9.215104  10.543758   6.870861
    33  H    3.553073   2.322340   6.145960   4.031397   2.725736
    34  H    5.831273   4.645653   8.525441   6.087145   4.642626
    35  H    7.535566   6.225471  10.057594   7.995856   5.355468
    36  H    7.592107   6.270544   9.690015   8.333920   4.621317
                   16         17         18         19         20
    16  C    0.000000
    17  C    6.901613   0.000000
    18  C    1.397529   7.934534   0.000000
    19  C    2.423792   8.799671   1.380707   0.000000
    20  C    2.806232   8.770355   2.396644   1.384352   0.000000
    21  C    2.430375   7.860977   2.763611   2.392526   1.382079
    22  C    1.396540   6.878180   2.382096   2.752998   2.390338
    23  Cl   2.744159   6.049265   4.016635   4.501725   3.975633
    24  H    2.172139   5.255009   3.411770   4.569733   4.837055
    25  H    4.788289   4.658558   5.368484   6.620766   7.304132
    26  H    5.443999   4.665637   6.702861   7.866816   7.998828
    27  H    6.420961   2.725837   7.706661   8.694131   8.602559
    28  H    5.835194   2.721529   6.537189   7.540641   7.915219
    29  H    5.560060   6.204071   6.394124   7.755433   8.364712
    30  H    7.518814   1.084321   8.434637   9.304701   9.368449
    31  H    6.593079   1.086586   7.601104   8.327055   8.174954
    32  H    7.637907   1.083865   8.756862   9.623641   9.516895
    33  H    2.134482   8.223692   1.070982   2.122712   3.362801
    34  H    3.390652   9.654908   2.127286   1.074925   2.138456
    35  H    3.881331   9.607085   3.373742   2.141473   1.075111
    36  H    3.393420   8.078547   3.836903   3.371781   2.140907
                   21         22         23         24         25
    21  C    0.000000
    22  C    1.382659   0.000000
    23  Cl   2.678059   1.749868   0.000000
    24  H    4.073162   2.706047   2.643225   0.000000
    25  H    6.908131   5.712024   5.851917   3.388506   0.000000
    26  H    6.999902   5.660639   4.648348   3.333263   4.254095
    27  H    7.490063   6.318749   5.067384   4.419894   4.912637
    28  H    7.360661   6.323770   6.155219   4.430938   2.446642
    29  H    7.771240   6.408965   6.148986   3.806915   3.207206
    30  H    8.566189   7.610512   6.945418   5.944317   4.751495
    31  H    7.255479   6.409254   5.602093   5.196427   5.069219
    32  H    8.512263   7.519088   6.483606   5.885839   5.482040
    33  H    3.834545   3.356566   4.875875   3.728716   5.068315
    34  H    3.369251   3.827884   5.576619   5.498934   7.225130
    35  H    2.130425   3.363823   4.808191   5.892186   8.318514
    36  H    1.073408   2.127225   2.777098   4.744584   7.683590
                   26         27         28         29         30
    26  H    0.000000
    27  H    2.455692   0.000000
    28  H    4.911301   4.259498   0.000000
    29  H    2.896368   4.907095   5.099067   0.000000
    30  H    5.462545   3.675201   2.517167   6.626411   0.000000
    31  H    5.131343   3.202504   3.094546   6.792032   1.752218
    32  H    4.734598   2.461643   3.714236   6.586619   1.754691
    33  H    6.900053   8.057700   6.518405   6.129646   8.631012
    34  H    8.807465   9.672033   8.212541   8.460831  10.088101
    35  H    9.015687   9.523540   8.820073   9.439417  10.193167
    36  H    7.379296   7.661114   7.911720   8.477267   8.841429
                   31         32         33         34         35
    31  H    0.000000
    32  H    1.752498   0.000000
    33  H    7.998078   9.086438   0.000000
    34  H    9.187776  10.522483   2.436718   0.000000
    35  H    8.940628  10.347295   4.253413   2.473210   0.000000
    36  H    7.389000   8.643086   4.907868   4.266028   2.465205
                   36
    36  H    0.000000
 Stoichiometry    C18H13Cl2NO2
 Framework group  C1[X(C18H13Cl2NO2)]
 Deg. of freedom   102
 Full point group                 C1      NOp   1
 Largest Abelian subgroup         C1      NOp   1
 Largest concise Abelian subgroup C1      NOp   1
                         Standard orientation:                         
 ---------------------------------------------------------------------
 Center     Atomic      Atomic             Coordinates (Angstroms)
 Number     Number       Type             X           Y           Z
 ---------------------------------------------------------------------
      1          6           0       -1.499895    1.963679    1.160709
      2          6           0       -1.651303    1.704935   -0.193640
      3          6           0       -1.317072    2.681914   -1.115366
      4          6           0       -0.832258    3.905823   -0.684984
      5          6           0       -0.656787    4.173751    0.666461
      6          6           0       -0.998159    3.181997    1.580128
      7          7           0       -2.193817    0.469006   -0.660537
      8          6           0       -1.787423   -0.766004   -0.274767
      9          6           0       -2.539819   -1.871484   -0.173159
     10          6           0       -0.397910   -1.190320    0.007525
     11          6           0       -1.707055   -3.000823    0.221510
     12          8           0       -0.441310   -2.514501    0.341164
     13         17           0       -4.230072   -2.002028   -0.429913
     14          8           0       -1.974949   -4.126661    0.438531
     15          6           0        0.724620   -0.498428   -0.106395
     16          6           0        2.102117   -0.972868    0.121032
     17          6           0       -0.088698    5.493126    1.132723
     18          6           0        2.394505   -2.041138    0.973321
     19          6           0        3.693935   -2.451810    1.195097
     20          6           0        4.744876   -1.803339    0.569449
     21          6           0        4.488546   -0.740572   -0.276106
     22          6           0        3.184063   -0.334966   -0.489540
     23         17           0        2.938660    1.012425   -1.578739
     24          1           0        0.617951    0.520543   -0.412976
     25          1           0       -1.775030    1.215825    1.883151
     26          1           0       -1.433269    2.478692   -2.164773
     27          1           0       -0.579716    4.655554   -1.414346
     28          1           0       -0.882052    3.366344    2.634092
     29          1           0       -3.154464    0.507064   -0.924159
     30          1           0       -0.523005    5.795201    2.079233
     31          1           0        0.986659    5.422493    1.271600
     32          1           0       -0.276643    6.279386    0.410757
     33          1           0        1.590745   -2.550397    1.464875
     34          1           0        3.883237   -3.277042    1.857382
     35          1           0        5.759006   -2.118919    0.736219
     36          1           0        5.289668   -0.226054   -0.771766
 ---------------------------------------------------------------------
 Rotational constants (GHZ):      0.2133581      0.1932282      0.1133008
 Leave Link  202 at Tue Jul 09 21:10:52 2019, MaxMem=   209715200 cpu:         0.0
 (Enter C:\G09W\l301.exe)
 Standard basis: 6-311++G(d,p) (5D, 7F)
 Ernie: Thresh=  0.10000D-02 Tol=  0.10000D-05 Strict=F.
 There are   636 symmetry adapted cartesian basis functions of A   symmetry.
 There are   613 symmetry adapted basis functions of A   symmetry.
   613 basis functions,   979 primitive gaussians,   636 cartesian basis functions
    89 alpha electrons       89 beta electrons
       nuclear repulsion energy      2072.4796455057 Hartrees.
 IExCor=  402 DFT=T Ex+Corr=B3LYP ExCW=0 ScaHFX=  0.200000
 ScaDFX=  0.800000  0.720000  1.000000  0.810000 ScalE2=  1.000000  1.000000
 IRadAn=      0 IRanWt=     -1 IRanGd=            0 ICorTp=0 IEmpDi=  4
 NAtoms=   36 NActive=   36 NUniq=   36 SFac= 1.00D+00 NAtFMM=   60 NAOKFM=F Big=F
 Integral buffers will be    262144 words long.
 Raffenetti 2 integral format.
 Two-electron integral symmetry is turned on.
 Leave Link  301 at Tue Jul 09 21:10:52 2019, MaxMem=   209715200 cpu:         0.0
 (Enter C:\G09W\l302.exe)
 NPDir=0 NMtPBC=     1 NCelOv=     1 NCel=       1 NClECP=     1 NCelD=      1
         NCelK=      1 NCelE2=     1 NClLst=     1 CellRange=     0.0.
 One-electron integrals computed using PRISM.
 NBasis=   613 RedAO= T EigKep=  1.12D-06  NBF=   613
 NBsUse=   607 1.00D-06 EigRej=  9.92D-07 NBFU=   607
 Precomputing XC quadrature grid using
 IXCGrd= 4 IRadAn=           0 IRanWt=          -1 IRanGd=           0 AccXCQ= 0.00D+00.
 Generated NRdTot=       0 NPtTot=           0 NUsed=           0 NTot=          16
 NSgBfM=   621   628   628   628   628 MxSgAt=    36 MxSgA2=    36.
 Leave Link  302 at Tue Jul 09 21:10:54 2019, MaxMem=   209715200 cpu:         2.0
 (Enter C:\G09W\l303.exe)
 DipDrv:  MaxL=1.
 Leave Link  303 at Tue Jul 09 21:10:54 2019, MaxMem=   209715200 cpu:         0.0
 (Enter C:\G09W\l401.exe)
 ExpMin= 3.60D-02 ExpMax= 1.06D+05 ExpMxC= 3.62D+03 IAcc=3 IRadAn=         5 AccDes= 0.00D+00
 Harris functional with IExCor=  402 and IRadAn=       5 diagonalized for initial guess.
 HarFok:  IExCor=  402 AccDes= 0.00D+00 IRadAn=         5 IDoV= 1 UseB2=F ITyADJ=14
 ICtDFT=  3500011 ScaDFX=  1.000000  1.000000  1.000000  1.000000
 FoFCou: FMM=F IPFlag=           0 FMFlag=      100000 FMFlg1=           0
         NFxFlg=           0 DoJE=T BraDBF=F KetDBF=T FulRan=T
         wScrn=  0.000000 ICntrl=     500 IOpCl=  0 I1Cent=   200000004 NGrid=           0
         NMat0=    1 NMatS0=      1 NMatT0=    0 NMatD0=    1 NMtDS0=    0 NMtDT0=    0
 Petite list used in FoFCou.
 Harris En= -1819.55344016650    
 JPrj=0 DoOrth=F DoCkMO=F.
 Leave Link  401 at Tue Jul 09 21:11:21 2019, MaxMem=   209715200 cpu:        27.0
 (Enter C:\G09W\l502.exe)
 Closed shell SCF:
 Using DIIS extrapolation, IDIIS=  1040.
 Integral symmetry usage will be decided dynamically.
 IVT=     1239693 IEndB=     1239693 NGot=   209715200 MDV=   208897280
 LenX=   208897280 LenY=   208492148
 Requested convergence on RMS density matrix=1.00D-08 within 128 cycles.
 Requested convergence on MAX density matrix=1.00D-06.
 Requested convergence on             energy=1.00D-06.
 No special actions if energy rises.
 Fock matrices will be formed incrementally for  20 cycles.

 Cycle   1  Pass 1  IDiag  1:
 FoFJK:  IHMeth= 1 ICntrl=       0 DoSepK=F KAlg= 0 I1Cent=   0 FoldK=F
 IRaf= 770000000 NMat=   1 IRICut=       1 DoRegI=T DoRafI=F ISym2E= 0.
 FoFCou: FMM=F IPFlag=           0 FMFlag=      100000 FMFlg1=           0
         NFxFlg=           0 DoJE=F BraDBF=F KetDBF=F FulRan=T
         wScrn=  0.000000 ICntrl=       0 IOpCl=  0 I1Cent=           0 NGrid=           0
         NMat0=    1 NMatS0=      1 NMatT0=    0 NMatD0=    1 NMtDS0=    0 NMtDT0=    0
 Symmetry not used in FoFCou.
 E= -1819.01227650838    
 DIIS: error= 1.83D-02 at cycle   1 NSaved=   1.
 NSaved= 1 IEnMin= 1 EnMin= -1819.01227650838     IErMin= 1 ErrMin= 1.83D-02
 ErrMax= 1.83D-02  0.00D+00 EMaxC= 1.00D-01 BMatC= 7.14D-01 BMatP= 7.14D-01
 IDIUse=3 WtCom= 8.17D-01 WtEn= 1.83D-01
 Coeff-Com:  0.100D+01
 Coeff-En:   0.100D+01
 Coeff:      0.100D+01
 Gap=     0.280 Goal=   None    Shift=    0.000
 GapD=    0.280 DampG=1.000 DampE=0.500 DampFc=0.5000 IDamp=-1.
 Damping current iteration by 5.00D-01
 RMSDP=4.94D-02 MaxDP=4.52D+00              OVMax= 3.19D-01

 Cycle   2  Pass 1  IDiag  1:
 RMSU=  2.34D-02    CP:  1.13D+00
 E= -1819.21923121051     Delta-E=       -0.206954702126 Rises=F Damp=T
 DIIS: error= 8.26D-03 at cycle   2 NSaved=   2.
 NSaved= 2 IEnMin= 2 EnMin= -1819.21923121051     IErMin= 2 ErrMin= 8.26D-03
 ErrMax= 8.26D-03  0.00D+00 EMaxC= 1.00D-01 BMatC= 8.18D-02 BMatP= 7.14D-01
 IDIUse=3 WtCom= 9.17D-01 WtEn= 8.26D-02
 Coeff-Com:  0.125D+00 0.875D+00
 Coeff-En:   0.272D+00 0.728D+00
 Coeff:      0.137D+00 0.863D+00
 Gap=     0.268 Goal=   None    Shift=    0.000
 RMSDP=2.49D-02 MaxDP=3.07D+00 DE=-2.07D-01 OVMax= 2.33D-01

 Cycle   3  Pass 1  IDiag  1:
 RMSU=  8.93D-03    CP:  9.54D-01  1.17D-01
 E= -1819.54399898967     Delta-E=       -0.324767779166 Rises=F Damp=F
 DIIS: error= 1.14D-02 at cycle   3 NSaved=   3.
 NSaved= 3 IEnMin= 3 EnMin= -1819.54399898967     IErMin= 2 ErrMin= 8.26D-03
 ErrMax= 1.14D-02  0.00D+00 EMaxC= 1.00D-01 BMatC= 8.75D-02 BMatP= 8.18D-02
 IDIUse=3 WtCom= 8.86D-01 WtEn= 1.14D-01
 Coeff-Com: -0.150D-01 0.513D+00 0.502D+00
 Coeff-En:   0.000D+00 0.000D+00 0.100D+01
 Coeff:     -0.133D-01 0.454D+00 0.559D+00
 Gap=     0.160 Goal=   None    Shift=    0.000
 RMSDP=6.04D-03 MaxDP=4.65D-01 DE=-3.25D-01 OVMax= 9.78D-02

 Cycle   4  Pass 1  IDiag  1:
 RMSU=  4.71D-03    CP:  9.93D-01  2.40D-01  9.48D-01
 E= -1819.59351079884     Delta-E=       -0.049511809169 Rises=F Damp=F
 DIIS: error= 6.60D-03 at cycle   4 NSaved=   4.
 NSaved= 4 IEnMin= 4 EnMin= -1819.59351079884     IErMin= 4 ErrMin= 6.60D-03
 ErrMax= 6.60D-03  0.00D+00 EMaxC= 1.00D-01 BMatC= 2.94D-02 BMatP= 8.18D-02
 IDIUse=3 WtCom= 9.34D-01 WtEn= 6.60D-02
 Coeff-Com: -0.277D-01 0.136D+00 0.387D+00 0.505D+00
 Coeff-En:   0.000D+00 0.000D+00 0.292D+00 0.708D+00
 Coeff:     -0.259D-01 0.127D+00 0.381D+00 0.518D+00
 Gap=     0.151 Goal=   None    Shift=    0.000
 RMSDP=3.43D-03 MaxDP=2.44D-01 DE=-4.95D-02 OVMax= 3.91D-02

 Cycle   5  Pass 1  IDiag  1:
 RMSU=  1.90D-03    CP:  9.59D-01  2.47D-01  9.15D-01  5.83D-01
 E= -1819.61751839169     Delta-E=       -0.024007592846 Rises=F Damp=F
 DIIS: error= 1.67D-03 at cycle   5 NSaved=   5.
 NSaved= 5 IEnMin= 5 EnMin= -1819.61751839169     IErMin= 5 ErrMin= 1.67D-03
 ErrMax= 1.67D-03  0.00D+00 EMaxC= 1.00D-01 BMatC= 1.38D-03 BMatP= 2.94D-02
 IDIUse=3 WtCom= 9.83D-01 WtEn= 1.67D-02
 Coeff-Com: -0.140D-01 0.413D-01 0.179D+00 0.299D+00 0.494D+00
 Coeff-En:   0.000D+00 0.000D+00 0.000D+00 0.000D+00 0.100D+01
 Coeff:     -0.138D-01 0.406D-01 0.176D+00 0.294D+00 0.503D+00
 Gap=     0.149 Goal=   None    Shift=    0.000
 RMSDP=1.18D-03 MaxDP=1.00D-01 DE=-2.40D-02 OVMax= 1.99D-02

 Cycle   6  Pass 1  IDiag  1:
 RMSU=  5.05D-04    CP:  9.62D-01  2.27D-01  9.82D-01  6.39D-01  6.32D-01
 E= -1819.61862591815     Delta-E=       -0.001107526463 Rises=F Damp=F
 DIIS: error= 6.51D-04 at cycle   6 NSaved=   6.
 NSaved= 6 IEnMin= 6 EnMin= -1819.61862591815     IErMin= 6 ErrMin= 6.51D-04
 ErrMax= 6.51D-04  0.00D+00 EMaxC= 1.00D-01 BMatC= 2.00D-04 BMatP= 1.38D-03
 IDIUse=3 WtCom= 9.93D-01 WtEn= 6.51D-03
 Coeff-Com: -0.487D-02 0.757D-02 0.589D-01 0.118D+00 0.314D+00 0.506D+00
 Coeff-En:   0.000D+00 0.000D+00 0.000D+00 0.000D+00 0.111D+00 0.889D+00
 Coeff:     -0.484D-02 0.752D-02 0.585D-01 0.118D+00 0.313D+00 0.508D+00
 Gap=     0.149 Goal=   None    Shift=    0.000
 RMSDP=3.34D-04 MaxDP=3.20D-02 DE=-1.11D-03 OVMax= 6.82D-03

 Cycle   7  Pass 1  IDiag  1:
 RMSU=  1.55D-04    CP:  9.63D-01  2.30D-01  9.65D-01  6.39D-01  6.73D-01
                    CP:  5.45D-01
 E= -1819.61880058974     Delta-E=       -0.000174671589 Rises=F Damp=F
 DIIS: error= 1.86D-04 at cycle   7 NSaved=   7.
 NSaved= 7 IEnMin= 7 EnMin= -1819.61880058974     IErMin= 7 ErrMin= 1.86D-04
 ErrMax= 1.86D-04  0.00D+00 EMaxC= 1.00D-01 BMatC= 1.86D-05 BMatP= 2.00D-04
 IDIUse=3 WtCom= 9.98D-01 WtEn= 1.86D-03
 Coeff-Com: -0.127D-02 0.128D-03 0.163D-01 0.390D-01 0.133D+00 0.300D+00
 Coeff-Com:  0.513D+00
 Coeff-En:   0.000D+00 0.000D+00 0.000D+00 0.000D+00 0.000D+00 0.397D-01
 Coeff-En:   0.960D+00
 Coeff:     -0.127D-02 0.128D-03 0.163D-01 0.389D-01 0.133D+00 0.299D+00
 Coeff:      0.514D+00
 Gap=     0.149 Goal=   None    Shift=    0.000
 RMSDP=1.09D-04 MaxDP=8.52D-03 DE=-1.75D-04 OVMax= 1.79D-03

 Cycle   8  Pass 1  IDiag  1:
 RMSU=  5.09D-05    CP:  9.63D-01  2.30D-01  9.68D-01  6.49D-01  6.54D-01
                    CP:  6.31D-01  6.45D-01
 E= -1819.61881675932     Delta-E=       -0.000016169583 Rises=F Damp=F
 DIIS: error= 5.93D-05 at cycle   8 NSaved=   8.
 NSaved= 8 IEnMin= 8 EnMin= -1819.61881675932     IErMin= 8 ErrMin= 5.93D-05
 ErrMax= 5.93D-05  0.00D+00 EMaxC= 1.00D-01 BMatC= 2.02D-06 BMatP= 1.86D-05
 IDIUse=1 WtCom= 1.00D+00 WtEn= 0.00D+00
 Coeff-Com: -0.130D-03-0.723D-03 0.322D-02 0.918D-02 0.406D-01 0.111D+00
 Coeff-Com:  0.295D+00 0.541D+00
 Coeff:     -0.130D-03-0.723D-03 0.322D-02 0.918D-02 0.406D-01 0.111D+00
 Coeff:      0.295D+00 0.541D+00
 Gap=     0.149 Goal=   None    Shift=    0.000
 RMSDP=4.26D-05 MaxDP=2.58D-03 DE=-1.62D-05 OVMax= 5.80D-04

 Cycle   9  Pass 1  IDiag  1:
 RMSU=  1.62D-05    CP:  9.63D-01  2.30D-01  9.67D-01  6.45D-01  6.66D-01
                    CP:  6.11D-01  6.86D-01  6.34D-01
 E= -1819.61881850631     Delta-E=       -0.000001746987 Rises=F Damp=F
 DIIS: error= 2.30D-05 at cycle   9 NSaved=   9.
 NSaved= 9 IEnMin= 9 EnMin= -1819.61881850631     IErMin= 9 ErrMin= 2.30D-05
 ErrMax= 2.30D-05  0.00D+00 EMaxC= 1.00D-01 BMatC= 4.30D-07 BMatP= 2.02D-06
 IDIUse=1 WtCom= 1.00D+00 WtEn= 0.00D+00
 Coeff-Com:  0.135D-03-0.534D-03-0.371D-03-0.152D-03 0.621D-02 0.270D-01
 Coeff-Com:  0.113D+00 0.357D+00 0.498D+00
 Coeff:      0.135D-03-0.534D-03-0.371D-03-0.152D-03 0.621D-02 0.270D-01
 Coeff:      0.113D+00 0.357D+00 0.498D+00
 Gap=     0.149 Goal=   None    Shift=    0.000
 RMSDP=1.53D-05 MaxDP=1.04D-03 DE=-1.75D-06 OVMax= 1.98D-04

 Cycle  10  Pass 1  IDiag  1:
 RMSU=  7.07D-06    CP:  9.63D-01  2.30D-01  9.67D-01  6.46D-01  6.61D-01
                    CP:  6.21D-01  7.03D-01  6.89D-01  8.61D-01
 E= -1819.61881891855     Delta-E=       -0.000000412242 Rises=F Damp=F
 DIIS: error= 6.03D-06 at cycle  10 NSaved=  10.
 NSaved=10 IEnMin=10 EnMin= -1819.61881891855     IErMin=10 ErrMin= 6.03D-06
 ErrMax= 6.03D-06  0.00D+00 EMaxC= 1.00D-01 BMatC= 2.33D-08 BMatP= 4.30D-07
 IDIUse=1 WtCom= 1.00D+00 WtEn= 0.00D+00
 Coeff-Com:  0.860D-04-0.211D-03-0.465D-03-0.974D-03-0.471D-03 0.366D-02
 Coeff-Com:  0.292D-01 0.132D+00 0.261D+00 0.576D+00
 Coeff:      0.860D-04-0.211D-03-0.465D-03-0.974D-03-0.471D-03 0.366D-02
 Coeff:      0.292D-01 0.132D+00 0.261D+00 0.576D+00
 Gap=     0.149 Goal=   None    Shift=    0.000
 RMSDP=4.33D-06 MaxDP=3.30D-04 DE=-4.12D-07 OVMax= 4.38D-05

 Cycle  11  Pass 1  IDiag  1:
 RMSU=  1.96D-06    CP:  9.63D-01  2.30D-01  9.67D-01  6.46D-01  6.62D-01
                    CP:  6.22D-01  6.99D-01  7.24D-01  8.34D-01  6.68D-01
 E= -1819.61881894127     Delta-E=       -0.000000022717 Rises=F Damp=F
 DIIS: error= 2.28D-06 at cycle  11 NSaved=  11.
 NSaved=11 IEnMin=11 EnMin= -1819.61881894127     IErMin=11 ErrMin= 2.28D-06
 ErrMax= 2.28D-06  0.00D+00 EMaxC= 1.00D-01 BMatC= 2.38D-09 BMatP= 2.33D-08
 IDIUse=1 WtCom= 1.00D+00 WtEn= 0.00D+00
 Coeff-Com:  0.307D-04-0.594D-04-0.201D-03-0.489D-03-0.793D-03-0.460D-03
 Coeff-Com:  0.417D-02 0.349D-01 0.899D-01 0.304D+00 0.569D+00
 Coeff:      0.307D-04-0.594D-04-0.201D-03-0.489D-03-0.793D-03-0.460D-03
 Coeff:      0.417D-02 0.349D-01 0.899D-01 0.304D+00 0.569D+00
 Gap=     0.149 Goal=   None    Shift=    0.000
 RMSDP=1.02D-06 MaxDP=1.22D-04 DE=-2.27D-08 OVMax= 2.14D-05

 Cycle  12  Pass 1  IDiag  1:
 RMSU=  4.90D-07    CP:  9.63D-01  2.30D-01  9.67D-01  6.46D-01  6.62D-01
                    CP:  6.22D-01  7.01D-01  7.25D-01  8.36D-01  7.21D-01
                    CP:  8.07D-01
 E= -1819.61881894348     Delta-E=       -0.000000002211 Rises=F Damp=F
 DIIS: error= 1.10D-06 at cycle  12 NSaved=  12.
 NSaved=12 IEnMin=12 EnMin= -1819.61881894348     IErMin=12 ErrMin= 1.10D-06
 ErrMax= 1.10D-06  0.00D+00 EMaxC= 1.00D-01 BMatC= 4.26D-10 BMatP= 2.38D-09
 IDIUse=1 WtCom= 1.00D+00 WtEn= 0.00D+00
 Coeff-Com:  0.353D-05-0.467D-07-0.426D-04-0.127D-03-0.421D-03-0.765D-03
 Coeff-Com: -0.221D-02 0.184D-03 0.125D-01 0.911D-01 0.335D+00 0.565D+00
 Coeff:      0.353D-05-0.467D-07-0.426D-04-0.127D-03-0.421D-03-0.765D-03
 Coeff:     -0.221D-02 0.184D-03 0.125D-01 0.911D-01 0.335D+00 0.565D+00
 Gap=     0.149 Goal=   None    Shift=    0.000
 RMSDP=5.14D-07 MaxDP=4.87D-05 DE=-2.21D-09 OVMax= 8.53D-06

 Cycle  13  Pass 1  IDiag  1:
 RMSU=  2.23D-07    CP:  9.63D-01  2.30D-01  9.67D-01  6.46D-01  6.62D-01
                    CP:  6.22D-01  7.01D-01  7.26D-01  8.43D-01  7.33D-01
                    CP:  8.49D-01  6.58D-01
 E= -1819.61881894415     Delta-E=       -0.000000000675 Rises=F Damp=F
 DIIS: error= 2.12D-07 at cycle  13 NSaved=  13.
 NSaved=13 IEnMin=13 EnMin= -1819.61881894415     IErMin=13 ErrMin= 2.12D-07
 ErrMax= 2.12D-07  0.00D+00 EMaxC= 1.00D-01 BMatC= 3.72D-11 BMatP= 4.26D-10
 IDIUse=1 WtCom= 1.00D+00 WtEn= 0.00D+00
 Coeff-Com: -0.107D-05 0.494D-05-0.430D-05-0.160D-04-0.147D-03-0.285D-03
 Coeff-Com: -0.146D-02-0.305D-02-0.256D-02 0.158D-01 0.112D+00 0.292D+00
 Coeff-Com:  0.587D+00
 Coeff:     -0.107D-05 0.494D-05-0.430D-05-0.160D-04-0.147D-03-0.285D-03
 Coeff:     -0.146D-02-0.305D-02-0.256D-02 0.158D-01 0.112D+00 0.292D+00
 Coeff:      0.587D+00
 Gap=     0.149 Goal=   None    Shift=    0.000
 RMSDP=1.21D-07 MaxDP=1.11D-05 DE=-6.75D-10 OVMax= 2.32D-06

 Cycle  14  Pass 1  IDiag  1:
 RMSU=  5.63D-08    CP:  9.63D-01  2.30D-01  9.67D-01  6.46D-01  6.62D-01
                    CP:  6.22D-01  7.01D-01  7.26D-01  8.44D-01  7.38D-01
                    CP:  8.53D-01  7.08D-01  7.98D-01
 E= -1819.61881894407     Delta-E=        0.000000000086 Rises=F Damp=F
 DIIS: error= 1.14D-07 at cycle  14 NSaved=  14.
 NSaved=14 IEnMin=13 EnMin= -1819.61881894415     IErMin=14 ErrMin= 1.14D-07
 ErrMax= 1.14D-07  0.00D+00 EMaxC= 1.00D-01 BMatC= 4.73D-12 BMatP= 3.72D-11
 IDIUse=1 WtCom= 1.00D+00 WtEn= 0.00D+00
 Coeff-Com: -0.879D-06 0.251D-05 0.179D-05 0.470D-05-0.423D-04-0.727D-04
 Coeff-Com: -0.561D-03-0.162D-02-0.278D-02-0.163D-02 0.234D-01 0.937D-01
 Coeff-Com:  0.318D+00 0.572D+00
 Coeff:     -0.879D-06 0.251D-05 0.179D-05 0.470D-05-0.423D-04-0.727D-04
 Coeff:     -0.561D-03-0.162D-02-0.278D-02-0.163D-02 0.234D-01 0.937D-01
 Coeff:      0.318D+00 0.572D+00
 Gap=     0.149 Goal=   None    Shift=    0.000
 RMSDP=5.42D-08 MaxDP=3.84D-06 DE= 8.59D-11 OVMax= 7.63D-07

 Cycle  15  Pass 1  IDiag  1:
 RMSU=  2.14D-08    CP:  9.63D-01  2.30D-01  9.67D-01  6.46D-01  6.62D-01
                    CP:  6.22D-01  7.01D-01  7.26D-01  8.44D-01  7.39D-01
                    CP:  8.63D-01  7.14D-01  8.06D-01  8.37D-01
 E= -1819.61881894407     Delta-E=       -0.000000000005 Rises=F Damp=F
 DIIS: error= 4.52D-08 at cycle  15 NSaved=  15.
 NSaved=15 IEnMin=13 EnMin= -1819.61881894415     IErMin=15 ErrMin= 4.52D-08
 ErrMax= 4.52D-08  0.00D+00 EMaxC= 1.00D-01 BMatC= 5.69D-13 BMatP= 4.73D-12
 IDIUse=1 WtCom= 1.00D+00 WtEn= 0.00D+00
 Coeff-Com: -0.358D-06 0.791D-06 0.142D-05 0.443D-05-0.814D-05-0.109D-04
 Coeff-Com: -0.156D-03-0.582D-03-0.135D-02-0.287D-02 0.462D-03 0.189D-01
 Coeff-Com:  0.112D+00 0.319D+00 0.555D+00
 Coeff:     -0.358D-06 0.791D-06 0.142D-05 0.443D-05-0.814D-05-0.109D-04
 Coeff:     -0.156D-03-0.582D-03-0.135D-02-0.287D-02 0.462D-03 0.189D-01
 Coeff:      0.112D+00 0.319D+00 0.555D+00
 Gap=     0.149 Goal=   None    Shift=    0.000
 RMSDP=1.21D-08 MaxDP=8.15D-07 DE=-5.00D-12 OVMax= 3.07D-07

 Cycle  16  Pass 1  IDiag  1:
 RMSU=  6.04D-09    CP:  9.63D-01  2.30D-01  9.67D-01  6.46D-01  6.62D-01
                    CP:  6.22D-01  7.01D-01  7.26D-01  8.44D-01  7.38D-01
                    CP:  8.63D-01  7.14D-01  8.11D-01  8.57D-01  7.22D-01
 E= -1819.61881894408     Delta-E=       -0.000000000014 Rises=F Damp=F
 DIIS: error= 1.29D-08 at cycle  16 NSaved=  16.
 NSaved=16 IEnMin=13 EnMin= -1819.61881894415     IErMin=16 ErrMin= 1.29D-08
 ErrMax= 1.29D-08  0.00D+00 EMaxC= 1.00D-01 BMatC= 9.93D-14 BMatP= 5.69D-13
 IDIUse=1 WtCom= 1.00D+00 WtEn= 0.00D+00
 Coeff-Com: -0.908D-07 0.154D-06 0.694D-06 0.203D-05 0.865D-06 0.139D-05
 Coeff-Com: -0.224D-04-0.135D-03-0.440D-03-0.145D-02-0.265D-02-0.155D-02
 Coeff-Com:  0.242D-01 0.116D+00 0.342D+00 0.525D+00
 Coeff:     -0.908D-07 0.154D-06 0.694D-06 0.203D-05 0.865D-06 0.139D-05
 Coeff:     -0.224D-04-0.135D-03-0.440D-03-0.145D-02-0.265D-02-0.155D-02
 Coeff:      0.242D-01 0.116D+00 0.342D+00 0.525D+00
 Gap=     0.149 Goal=   None    Shift=    0.000
 RMSDP=7.53D-09 MaxDP=5.73D-07 DE=-1.36D-11 OVMax= 1.03D-07

 SCF Done:  E(RB3LYP) =  -1819.61881894     A.U. after   16 cycles
            NFock= 16  Conv=0.75D-08     -V/T= 2.0028
 KE= 1.814513584413D+03 PE=-8.425443559990D+03 EE= 2.718831511128D+03
 Leave Link  502 at Tue Jul 09 21:32:01 2019, MaxMem=   209715200 cpu:      1239.0
 (Enter C:\G09W\l601.exe)
 Copying SCF densities to generalized density rwf, IOpCl= 0 IROHF=0.

 **********************************************************************

            Population analysis using the SCF density.

 **********************************************************************

 Orbital symmetries:
       Occupied  (A) (A) (A) (A) (A) (A) (A) (A) (A) (A) (A) (A)
                 (A) (A) (A) (A) (A) (A) (A) (A) (A) (A) (A) (A)
                 (A) (A) (A) (A) (A) (A) (A) (A) (A) (A) (A) (A)
                 (A) (A) (A) (A) (A) (A) (A) (A) (A) (A) (A) (A)
                 (A) (A) (A) (A) (A) (A) (A) (A) (A) (A) (A) (A)
                 (A) (A) (A) (A) (A) (A) (A) (A) (A) (A) (A) (A)
                 (A) (A) (A) (A) (A) (A) (A) (A) (A) (A) (A) (A)
                 (A) (A) (A) (A) (A)
       Virtual   (A) (A) (A) (A) (A) (A) (A) (A) (A) (A) (A) (A)
                 (A) (A) (A) (A) (A) (A) (A) (A) (A) (A) (A) (A)
                 (A) (A) (A) (A) (A) (A) (A) (A) (A) (A) (A) (A)
                 (A) (A) (A) (A) (A) (A) (A) (A) (A) (A) (A) (A)
                 (A) (A) (A) (A) (A) (A) (A) (A) (A) (A) (A) (A)
                 (A) (A) (A) (A) (A) (A) (A) (A) (A) (A) (A) (A)
                 (A) (A) (A) (A) (A) (A) (A) (A) (A) (A) (A) (A)
                 (A) (A) (A) (A) (A) (A) (A) (A) (A) (A) (A) (A)
                 (A) (A) (A) (A) (A) (A) (A) (A) (A) (A) (A) (A)
                 (A) (A) (A) (A) (A) (A) (A) (A) (A) (A) (A) (A)
                 (A) (A) (A) (A) (A) (A) (A) (A) (A) (A) (A) (A)
                 (A) (A) (A) (A) (A) (A) (A) (A) (A) (A) (A) (A)
                 (A) (A) (A) (A) (A) (A) (A) (A) (A) (A) (A) (A)
                 (A) (A) (A) (A) (A) (A) (A) (A) (A) (A) (A) (A)
                 (A) (A) (A) (A) (A) (A) (A) (A) (A) (A) (A) (A)
                 (A) (A) (A) (A) (A) (A) (A) (A) (A) (A) (A) (A)
                 (A) (A) (A) (A) (A) (A) (A) (A) (A) (A) (A) (A)
                 (A) (A) (A) (A) (A) (A) (A) (A) (A) (A) (A) (A)
                 (A) (A) (A) (A) (A) (A) (A) (A) (A) (A) (A) (A)
                 (A) (A) (A) (A) (A) (A) (A) (A) (A) (A) (A) (A)
                 (A) (A) (A) (A) (A) (A) (A) (A) (A) (A) (A) (A)
                 (A) (A) (A) (A) (A) (A) (A) (A) (A) (A) (A) (A)
                 (A) (A) (A) (A) (A) (A) (A) (A) (A) (A) (A) (A)
                 (A) (A) (A) (A) (A) (A) (A) (A) (A) (A) (A) (A)
                 (A) (A) (A) (A) (A) (A) (A) (A) (A) (A) (A) (A)
                 (A) (A) (A) (A) (A) (A) (A) (A) (A) (A) (A) (A)
                 (A) (A) (A) (A) (A) (A) (A) (A) (A) (A) (A) (A)
                 (A) (A) (A) (A) (A) (A) (A) (A) (A) (A) (A) (A)
                 (A) (A) (A) (A) (A) (A) (A) (A) (A) (A) (A) (A)
                 (A) (A) (A) (A) (A) (A) (A) (A) (A) (A) (A) (A)
                 (A) (A) (A) (A) (A) (A) (A) (A) (A) (A) (A) (A)
                 (A) (A) (A) (A) (A) (A) (A) (A) (A) (A) (A) (A)
                 (A) (A) (A) (A) (A) (A) (A) (A) (A) (A) (A) (A)
                 (A) (A) (A) (A) (A) (A) (A) (A) (A) (A) (A) (A)
                 (A) (A) (A) (A) (A) (A) (A) (A) (A) (A) (A) (A)
                 (A) (A) (A) (A) (A) (A) (A) (A) (A) (A) (A) (A)
                 (A) (A) (A) (A) (A) (A) (A) (A) (A) (A) (A) (A)
                 (A) (A) (A) (A) (A) (A) (A) (A) (A) (A) (A) (A)
                 (A) (A) (A) (A) (A) (A) (A) (A) (A) (A) (A) (A)
                 (A) (A) (A) (A) (A) (A) (A) (A) (A) (A) (A) (A)
                 (A) (A) (A) (A) (A) (A) (A) (A) (A) (A) (A) (A)
                 (A) (A) (A) (A) (A) (A) (A) (A) (A) (A) (A) (A)
                 (A) (A) (A) (A) (A) (A) (A) (A) (A) (A) (A) (A)
                 (A) (A)
 The electronic state is 1-A.
 Alpha  occ. eigenvalues -- -101.57429-101.56241 -19.18940 -19.11571 -14.36791
 Alpha  occ. eigenvalues --  -10.30746 -10.26576 -10.25941 -10.24784 -10.23675
 Alpha  occ. eigenvalues --  -10.23417 -10.21241 -10.20222 -10.20114 -10.19514
 Alpha  occ. eigenvalues --  -10.19364 -10.19315 -10.19162 -10.19135 -10.19101
 Alpha  occ. eigenvalues --  -10.18895 -10.18635 -10.18062  -9.48867  -9.47753
 Alpha  occ. eigenvalues --   -7.25339  -7.24332  -7.24321  -7.24194  -7.23242
 Alpha  occ. eigenvalues --   -7.23200  -1.14739  -1.05786  -0.99054  -0.91294
 Alpha  occ. eigenvalues --   -0.90107  -0.88047  -0.85374  -0.83001  -0.81103
 Alpha  occ. eigenvalues --   -0.78356  -0.77489  -0.76343  -0.74952  -0.71108
 Alpha  occ. eigenvalues --   -0.67573  -0.64556  -0.63366  -0.62902  -0.62447
 Alpha  occ. eigenvalues --   -0.60644  -0.58545  -0.55418  -0.54562  -0.53213
 Alpha  occ. eigenvalues --   -0.50720  -0.50449  -0.49584  -0.49005  -0.48683
 Alpha  occ. eigenvalues --   -0.46551  -0.46110  -0.45282  -0.44774  -0.44604
 Alpha  occ. eigenvalues --   -0.44469  -0.44127  -0.43090  -0.41780  -0.41371
 Alpha  occ. eigenvalues --   -0.40856  -0.39583  -0.38754  -0.38494  -0.37876
 Alpha  occ. eigenvalues --   -0.37341  -0.37083  -0.36839  -0.34811  -0.34206
 Alpha  occ. eigenvalues --   -0.33712  -0.32546  -0.30715  -0.29467  -0.28099
 Alpha  occ. eigenvalues --   -0.27783  -0.26421  -0.24583  -0.23527
 Alpha virt. eigenvalues --   -0.08589  -0.03694  -0.03527  -0.02983  -0.01722
 Alpha virt. eigenvalues --   -0.01632  -0.00852  -0.00692  -0.00028   0.00693
 Alpha virt. eigenvalues --    0.01087   0.01502   0.01976   0.02132   0.02799
 Alpha virt. eigenvalues --    0.02943   0.03585   0.04137   0.04687   0.04842
 Alpha virt. eigenvalues --    0.04969   0.05486   0.05737   0.06278   0.06447
 Alpha virt. eigenvalues --    0.07043   0.07098   0.07474   0.07751   0.07979
 Alpha virt. eigenvalues --    0.08262   0.08517   0.08695   0.09313   0.09698
 Alpha virt. eigenvalues --    0.10158   0.10366   0.10524   0.10640   0.11082
 Alpha virt. eigenvalues --    0.11121   0.11278   0.11468   0.11570   0.11925
 Alpha virt. eigenvalues --    0.12078   0.12172   0.12371   0.12607   0.13148
 Alpha virt. eigenvalues --    0.13294   0.13605   0.13915   0.14073   0.14144
 Alpha virt. eigenvalues --    0.14484   0.14956   0.15232   0.15699   0.15845
 Alpha virt. eigenvalues --    0.15963   0.16212   0.16643   0.16772   0.16920
 Alpha virt. eigenvalues --    0.17391   0.17540   0.17941   0.18077   0.18367
 Alpha virt. eigenvalues --    0.18867   0.19119   0.19288   0.19612   0.19960
 Alpha virt. eigenvalues --    0.20296   0.20623   0.20694   0.20920   0.21552
 Alpha virt. eigenvalues --    0.21865   0.22122   0.22695   0.22872   0.23354
 Alpha virt. eigenvalues --    0.23697   0.24033   0.24394   0.24499   0.24518
 Alpha virt. eigenvalues --    0.24970   0.25114   0.25552   0.26196   0.26405
 Alpha virt. eigenvalues --    0.26689   0.26989   0.27172   0.27494   0.27587
 Alpha virt. eigenvalues --    0.28002   0.28118   0.28224   0.28526   0.28839
 Alpha virt. eigenvalues --    0.29032   0.29396   0.29486   0.30059   0.30185
 Alpha virt. eigenvalues --    0.30576   0.30802   0.31306   0.31543   0.31736
 Alpha virt. eigenvalues --    0.32083   0.32373   0.32550   0.33471   0.33957
 Alpha virt. eigenvalues --    0.34243   0.34373   0.34734   0.35410   0.35975
 Alpha virt. eigenvalues --    0.36270   0.36286   0.36943   0.37625   0.37790
 Alpha virt. eigenvalues --    0.37960   0.38665   0.39015   0.40180   0.40929
 Alpha virt. eigenvalues --    0.41327   0.41920   0.43407   0.43754   0.45846
 Alpha virt. eigenvalues --    0.46727   0.46884   0.47245   0.47954   0.48173
 Alpha virt. eigenvalues --    0.48524   0.49135   0.49926   0.50830   0.51308
 Alpha virt. eigenvalues --    0.52438   0.53495   0.54166   0.54402   0.54727
 Alpha virt. eigenvalues --    0.55226   0.55625   0.56153   0.56951   0.57284
 Alpha virt. eigenvalues --    0.57672   0.58536   0.58886   0.59448   0.59708
 Alpha virt. eigenvalues --    0.60346   0.61246   0.61409   0.61648   0.62398
 Alpha virt. eigenvalues --    0.63052   0.63237   0.63879   0.64152   0.65277
 Alpha virt. eigenvalues --    0.65459   0.65822   0.66000   0.66264   0.67565
 Alpha virt. eigenvalues --    0.68187   0.68344   0.68745   0.70036   0.70486
 Alpha virt. eigenvalues --    0.70997   0.71423   0.71668   0.72503   0.72786
 Alpha virt. eigenvalues --    0.73549   0.74205   0.75134   0.75441   0.76328
 Alpha virt. eigenvalues --    0.76387   0.76961   0.77615   0.78495   0.80123
 Alpha virt. eigenvalues --    0.80859   0.81544   0.82258   0.82519   0.83428
 Alpha virt. eigenvalues --    0.83659   0.84374   0.85223   0.85447   0.85716
 Alpha virt. eigenvalues --    0.86110   0.86460   0.87018   0.87330   0.87905
 Alpha virt. eigenvalues --    0.88202   0.88563   0.89089   0.89505   0.90152
 Alpha virt. eigenvalues --    0.90683   0.90733   0.91211   0.91607   0.92248
 Alpha virt. eigenvalues --    0.92912   0.93559   0.94940   0.95280   0.95401
 Alpha virt. eigenvalues --    0.96428   0.97075   0.97614   0.98445   0.98697
 Alpha virt. eigenvalues --    0.99056   1.00174   1.01234   1.01738   1.02284
 Alpha virt. eigenvalues --    1.02730   1.03762   1.04402   1.05542   1.06466
 Alpha virt. eigenvalues --    1.06793   1.07938   1.08836   1.09351   1.09463
 Alpha virt. eigenvalues --    1.10658   1.11577   1.12209   1.13243   1.15361
 Alpha virt. eigenvalues --    1.15858   1.17737   1.18384   1.19860   1.21485
 Alpha virt. eigenvalues --    1.22738   1.24479   1.24809   1.26737   1.27251
 Alpha virt. eigenvalues --    1.27772   1.29621   1.30210   1.31012   1.31204
 Alpha virt. eigenvalues --    1.32539   1.35205   1.35678   1.36432   1.36505
 Alpha virt. eigenvalues --    1.38247   1.41398   1.42684   1.45673   1.47078
 Alpha virt. eigenvalues --    1.47550   1.48227   1.49689   1.50764   1.51184
 Alpha virt. eigenvalues --    1.52167   1.52631   1.53516   1.53926   1.54422
 Alpha virt. eigenvalues --    1.56384   1.56626   1.57028   1.57437   1.58201
 Alpha virt. eigenvalues --    1.58377   1.59271   1.60859   1.62075   1.62969
 Alpha virt. eigenvalues --    1.64608   1.65615   1.66548   1.67582   1.68287
 Alpha virt. eigenvalues --    1.68667   1.68838   1.69447   1.71720   1.74130
 Alpha virt. eigenvalues --    1.74875   1.75487   1.77031   1.77070   1.77955
 Alpha virt. eigenvalues --    1.78560   1.80394   1.80928   1.82143   1.82857
 Alpha virt. eigenvalues --    1.83888   1.84677   1.86161   1.87689   1.88498
 Alpha virt. eigenvalues --    1.89523   1.90214   1.91668   1.92010   1.92576
 Alpha virt. eigenvalues --    1.93242   1.93911   1.94172   1.95340   1.96343
 Alpha virt. eigenvalues --    1.96580   1.97547   1.97722   1.98290   1.99137
 Alpha virt. eigenvalues --    2.01790   2.02082   2.03619   2.04566   2.05878
 Alpha virt. eigenvalues --    2.07629   2.08163   2.09066   2.09590   2.10702
 Alpha virt. eigenvalues --    2.11770   2.13293   2.15489   2.16939   2.19336
 Alpha virt. eigenvalues --    2.20654   2.21074   2.22234   2.26478   2.26612
 Alpha virt. eigenvalues --    2.27884   2.30276   2.32200   2.33568   2.34110
 Alpha virt. eigenvalues --    2.35006   2.35716   2.38386   2.39040   2.42843
 Alpha virt. eigenvalues --    2.44298   2.45155   2.46181   2.47154   2.47388
 Alpha virt. eigenvalues --    2.47800   2.50599   2.52765   2.55402   2.55901
 Alpha virt. eigenvalues --    2.57061   2.57730   2.58772   2.58978   2.60495
 Alpha virt. eigenvalues --    2.61653   2.62959   2.64622   2.64868   2.65903
 Alpha virt. eigenvalues --    2.66465   2.69517   2.69710   2.70663   2.72012
 Alpha virt. eigenvalues --    2.72444   2.73861   2.74651   2.75054   2.76053
 Alpha virt. eigenvalues --    2.76180   2.77098   2.78519   2.78740   2.78824
 Alpha virt. eigenvalues --    2.80451   2.80817   2.82181   2.82990   2.83685
 Alpha virt. eigenvalues --    2.84609   2.86917   2.88314   2.89401   2.89491
 Alpha virt. eigenvalues --    2.91236   2.91926   2.92604   2.92980   2.93992
 Alpha virt. eigenvalues --    2.94568   2.95242   2.96690   2.99072   2.99830
 Alpha virt. eigenvalues --    3.01235   3.02980   3.04524   3.05686   3.09269
 Alpha virt. eigenvalues --    3.10742   3.12600   3.13328   3.18940   3.20033
 Alpha virt. eigenvalues --    3.20276   3.20488   3.21565   3.23340   3.25497
 Alpha virt. eigenvalues --    3.27134   3.32430   3.33838   3.36881   3.37816
 Alpha virt. eigenvalues --    3.40536   3.41342   3.41805   3.47992   3.50913
 Alpha virt. eigenvalues --    3.52711   3.55213   3.58276   3.63098   3.63602
 Alpha virt. eigenvalues --    3.68028   3.68507   3.72034   3.73971   3.80217
 Alpha virt. eigenvalues --    3.81469   3.83209   3.85286   3.90763   3.99345
 Alpha virt. eigenvalues --    4.00483   4.04401   4.06393   4.09640   4.12193
 Alpha virt. eigenvalues --    4.14942   4.15947   4.17472   4.19752   4.32499
 Alpha virt. eigenvalues --    4.34601   4.54464   4.83710   4.84717   4.85199
 Alpha virt. eigenvalues --    5.00861   5.07759   5.12916   5.21431   5.47488
 Alpha virt. eigenvalues --    5.73331   5.96666   9.80812   9.82500  23.52962
 Alpha virt. eigenvalues --   23.60782  23.64215  23.76638  23.92881  23.93463
 Alpha virt. eigenvalues --   23.96263  23.96866  23.98190  23.99320  24.05710
 Alpha virt. eigenvalues --   24.08755  24.11528  24.12152  24.16262  24.20962
 Alpha virt. eigenvalues --   24.21007  24.26663  25.86441  25.91416  26.17378
 Alpha virt. eigenvalues --   26.28945  26.72073  26.73560  35.68146  49.94051
 Alpha virt. eigenvalues --   50.09296 215.80659 215.82731
          Condensed to atoms (all electrons):
               1          2          3          4          5          6
     1  C   15.273485  -1.300464  -6.782670   1.871358  -1.626283  -1.458575
     2  C   -1.300464  16.520963  -1.405567  -1.432886  -0.273748  -4.300491
     3  C   -6.782670  -1.405567  13.888430  -0.756193  -0.477587   1.154926
     4  C    1.871358  -1.432886  -0.756193   8.970493  -0.790326  -1.326024
     5  C   -1.626283  -0.273748  -0.477587  -0.790326   9.258285   0.642995
     6  C   -1.458575  -4.300491   1.154926  -1.326024   0.642995  11.507071
     7  N    0.006896  -0.272016  -0.191269   0.097249  -0.002764   0.024653
     8  C   -2.256501  -0.719797   1.929160  -0.032505  -0.308186   0.397455
     9  C    0.674470  -0.753710  -0.583416   0.157636  -0.032842   0.173419
    10  C   -1.777958   0.595959   1.670897  -0.349544   0.090061   0.067111
    11  C   -0.405914   0.535572   0.224413   0.025890  -0.005477  -0.200808
    12  O   -0.031163  -0.000780   0.016001  -0.000395  -0.003240  -0.008128
    13  Cl   0.267729  -0.517361  -0.052068  -0.033060   0.017375   0.169273
    14  O    0.005895   0.000276  -0.004037   0.000022   0.000016  -0.000075
    15  C    0.787483  -0.272370  -0.610383   0.073770  -0.043366   0.052136
    16  C    1.919716  -0.140647  -1.719474   0.199521  -0.000545  -0.406324
    17  C   -0.437782   0.024777   0.189642  -0.661951  -0.649730  -0.250358
    18  C   -0.274565   0.049438   0.340943  -0.008070  -0.063940   0.013759
    19  C   -0.053952   0.111830   0.031422  -0.003749  -0.007745  -0.061300
    20  C   -0.023808  -0.000715   0.017963  -0.000347  -0.000184   0.010515
    21  C    0.066990  -0.113954  -0.009621   0.013201  -0.018243   0.084632
    22  C    0.832704  -0.145932  -0.812082   0.140203   0.021122  -0.071016
    23  Cl   0.157785   0.094754  -0.187107   0.038496  -0.035028  -0.047622
    24  H    0.174985   0.744020  -0.541866  -0.121075   0.104760  -0.425603
    25  H    0.524240  -0.213115  -0.115371   0.017228   0.040212   0.088372
    26  H   -0.054720  -0.116253   0.521346  -0.021876   0.008174   0.009956
    27  H    0.070255   0.011236  -0.101394   0.378927  -0.057034   0.028588
    28  H    0.056016   0.072053   0.034486   0.035892  -0.098633   0.238893
    29  H   -0.126689  -0.196094   0.113468  -0.060270   0.014890   0.065466
    30  H    0.001101  -0.007062  -0.024408  -0.057113  -0.076202   0.091804
    31  H    0.016396   0.008298  -0.002628  -0.042114   0.079126   0.004382
    32  H   -0.025767  -0.003471   0.029148   0.102997  -0.119396  -0.068425
    33  H    0.007012  -0.019030   0.001682   0.001529  -0.001201   0.008356
    34  H    0.002018   0.000102  -0.001464   0.000164   0.000025  -0.001119
    35  H   -0.000525   0.000334   0.000360  -0.000064   0.000017  -0.000021
    36  H    0.002157  -0.001903  -0.000975   0.000657  -0.000842   0.000944
               7          8          9         10         11         12
     1  C    0.006896  -2.256501   0.674470  -1.777958  -0.405914  -0.031163
     2  C   -0.272016  -0.719797  -0.753710   0.595959   0.535572  -0.000780
     3  C   -0.191269   1.929160  -0.583416   1.670897   0.224413   0.016001
     4  C    0.097249  -0.032505   0.157636  -0.349544   0.025890  -0.000395
     5  C   -0.002764  -0.308186  -0.032842   0.090061  -0.005477  -0.003240
     6  C    0.024653   0.397455   0.173419   0.067111  -0.200808  -0.008128
     7  N    7.296348  -0.652007  -0.453128   0.260852   0.142803  -0.016285
     8  C   -0.652007  16.197700   3.071656  -0.632641  -1.082775  -0.009658
     9  C   -0.453128   3.071656  16.475107  -4.694643  -2.532152  -0.131320
    10  C    0.260852  -0.632641  -4.694643  16.566015  -0.100623   0.411493
    11  C    0.142803  -1.082775  -2.532152  -0.100623   9.544188  -0.170791
    12  O   -0.016285  -0.009658  -0.131320   0.411493  -0.170791   8.324539
    13  Cl  -0.098019   0.855007  -0.098789  -1.084312  -1.077413   0.003802
    14  O    0.000382   0.007822  -0.123292  -0.109521   0.498583  -0.051325
    15  C    0.392276  -3.891726  -2.931998   3.714776   0.097664  -0.202274
    16  C    0.108710  -4.659459  -1.510545  -3.170734   0.004076  -0.116866
    17  C   -0.009028  -0.124264  -0.015886   0.045569  -0.001662  -0.000191
    18  C   -0.023680   0.401623  -0.389398   0.941562   0.199557   0.060553
    19  C   -0.005085  -0.034650  -0.338674  -1.583072   0.253181   0.041201
    20  C   -0.000932   0.056907   0.013768   0.667996  -0.011099  -0.007723
    21  C   -0.015026   0.251251   0.158603   0.881790  -0.051862  -0.009082
    22  C   -0.011363  -1.187950  -0.026515  -4.356034  -0.065985  -0.007994
    23  Cl  -0.002444  -0.177989  -0.043102  -0.815774   0.023615   0.005307
    24  H    0.085225  -1.070461  -0.436480  -0.584258   0.127522   0.006425
    25  H   -0.043481  -0.007723   0.087223  -0.092844  -0.049723   0.000394
    26  H    0.005427  -0.054495  -0.022135   0.029386   0.006162   0.000010
    27  H   -0.006553   0.009971   0.001917  -0.010329  -0.000902   0.000059
    28  H   -0.004034  -0.015521  -0.012687   0.009212   0.004641  -0.000067
    29  H    0.315676   0.366452  -0.011519  -0.113925  -0.114262  -0.000950
    30  H   -0.000492   0.002321   0.001102  -0.000849  -0.000070  -0.000009
    31  H    0.000803  -0.003465  -0.001198  -0.000764   0.000016   0.000017
    32  H   -0.000933  -0.000832  -0.000072   0.000880  -0.000009  -0.000004
    33  H   -0.005983   0.058875   0.045573   0.216343  -0.014597  -0.035902
    34  H    0.000174  -0.010471  -0.008657  -0.069758   0.005724   0.001736
    35  H   -0.000019   0.000785  -0.000153   0.012132   0.000130  -0.000056
    36  H   -0.000161   0.000790   0.000915  -0.006342  -0.000620   0.000171
              13         14         15         16         17         18
     1  C    0.267729   0.005895   0.787483   1.919716  -0.437782  -0.274565
     2  C   -0.517361   0.000276  -0.272370  -0.140647   0.024777   0.049438
     3  C   -0.052068  -0.004037  -0.610383  -1.719474   0.189642   0.340943
     4  C   -0.033060   0.000022   0.073770   0.199521  -0.661951  -0.008070
[...]
   504. RY*(   2) H  28                  0.00025     1.96941   
   505. RY*(   3) H  28                  0.00019     1.58882   
   506. RY*(   4) H  28                  0.00016     1.62892   
   507. RY*(   5) H  28                  0.00009     1.00656   
   508. RY*(   6) H  28                  0.00003     2.42652   
   509. RY*(   1) H  29                  0.00143     0.81090   
   510. RY*(   2) H  29                  0.00077     1.70159   
   511. RY*(   3) H  29                  0.00040     1.37927   
   512. RY*(   4) H  29                  0.00025     1.70445   
   513. RY*(   5) H  29                  0.00019     1.36474   
   514. RY*(   6) H  29                  0.00006     2.52671   
   515. RY*(   1) H  30                  0.00093     0.62546   
   516. RY*(   2) H  30                  0.00016     1.83713   
   517. RY*(   3) H  30                  0.00012    -1.32464   
   518. RY*(   4) H  30                  0.00009     1.34153   
   519. RY*(   5) H  30                  0.00005     1.15673   
   520. RY*(   6) H  30                  0.00002     2.32878   
   521. RY*(   1) H  31                  0.00098     0.62428   
   522. RY*(   2) H  31                  0.00020     0.96249   
   523. RY*(   3) H  31                  0.00016     1.16568   
   524. RY*(   4) H  31                  0.00014     1.67223   
   525. RY*(   5) H  31                  0.00006     2.12489   
   526. RY*(   6) H  31                  0.00005     2.52516   
   527. RY*(   1) H  32                  0.00093     0.64974   
   528. RY*(   2) H  32                  0.00016     1.95024   
   529. RY*(   3) H  32                  0.00012     1.74891   
   530. RY*(   4) H  32                  0.00009     1.43460   
   531. RY*(   5) H  32                  0.00005     0.80666   
   532. RY*(   6) H  32                  0.00002     2.52438   
   533. RY*(   1) H  33                  0.00095     1.44638   
   534. RY*(   2) H  33                  0.00022     0.97120   
   535. RY*(   3) H  33                  0.00017     1.40663   
   536. RY*(   4) H  33                  0.00011     1.82322   
   537. RY*(   5) H  33                  0.00008     0.59811   
   538. RY*(   6) H  33                  0.00005     0.77776   
   539. RY*(   1) H  34                  0.00075     0.70577   
   540. RY*(   2) H  34                  0.00021     2.28970   
   541. RY*(   3) H  34                  0.00018     1.59148   
   542. RY*(   4) H  34                  0.00012     1.94505   
   543. RY*(   5) H  34                  0.00005     0.71071   
   544. RY*(   6) H  34                  0.00003     1.74872   
   545. RY*(   1) H  35                  0.00077    -1.68936   
   546. RY*(   2) H  35                  0.00021    -0.15700   
   547. RY*(   3) H  35                  0.00019     0.10186   
   548. RY*(   4) H  35                  0.00012    -0.30506   
   549. RY*(   5) H  35                  0.00004    -4.16453   
   550. RY*(   6) H  35                  0.00004    -1.03095   
   551. RY*(   1) H  36                  0.00093   -53.94658   
   552. RY*(   2) H  36                  0.00027    -9.16354   
   553. RY*(   3) H  36                  0.00019    -0.50618   
   554. RY*(   4) H  36                  0.00015    -3.30711   
   555. RY*(   5) H  36                  0.00014   -86.86082   
   556. RY*(   6) H  36                  0.00003   -43.71394   
   557. BD*(   1) C   1 - C   2          0.02810     0.53542   
   558. BD*(   1) C   1 - C   6          0.01414     0.54773   
   559. BD*(   2) C   1 - C   6          0.32445     0.01591  567(v),562(v),581(r),176(g)
                                                    92(g),93(g)
   560. BD*(   1) C   1 - H  25          0.01318     0.42574   
   561. BD*(   1) C   2 - C   3          0.02419     0.55223   
   562. BD*(   2) C   2 - C   3          0.38911     0.00806  559(v),567(v),125(g),573(v)
                                                    111(g),546(r),92(v),356(r)
                                                    575(r)
   563. BD*(   1) C   2 - N   7          0.03119     0.34957   
   564. BD*(   1) C   3 - C   4          0.01352     0.43178   
   565. BD*(   1) C   3 - H  26          0.01283     0.41847   
   566. BD*(   1) C   4 - C   5          0.02373     0.56813   
   567. BD*(   2) C   4 - C   5          0.34045     0.02320  559(v),562(v),142(g)
   568. BD*(   1) C   4 - H  27          0.01398     0.42757   
   569. BD*(   1) C   5 - C   6          0.02400     0.56511   
   570. BD*(   1) C   5 - C  17          0.01577     0.40883   
   571. BD*(   1) C   6 - H  28          0.01422     0.42648   
   572. BD*(   1) N   7 - C   8          0.02603     0.44423   
   573. BD*(   1) N   7 - H  29          0.02187     0.36756   
   574. BD*(   1) C   8 - C   9          0.02890     0.56290   
   575. BD*(   2) C   8 - C   9          0.35848    -0.01072  584(v),581(v),227(g),211(g)
                                                    291(v),562(r),191(v),610(r)
   576. BD*(   1) C   8 - C  10          0.03946     0.41430   
   577. BD*(   1) C   9 - C  11          0.07665     0.43553   
   578. BD*(   1) C   9 -Cl  13          0.02545    -0.02783   
   579. BD*(   1) C  10 - O  12          0.03407    -1.81335   
   580. BD*(   1) C  10 - C  15          0.01902     0.59589   
   581. BD*(   2) C  10 - C  15          0.21112     0.01678  589(v),575(v),546(r),559(r)
                                                    356(v),348(v),446(r),353(v)
                                                    463(r),482(v),578(r),602(r)
                                                    251(g),204(r),428(r),465(r)
                                                    347(v),442(r),339(g),548(r)
                                                    331(g),434(r),249(g),550(r)
                                                    343(g)
   582. BD*(   1) C  11 - O  12          0.13139     0.27738  401(r),433(r),259(g),574(v)
                                                    578(v),264(g),576(v),463(r)
                                                    345(r)
   583. BD*(   1) C  11 - O  14          0.01222     0.62989   
   584. BD*(   2) C  11 - O  14          0.28925     0.00375  575(v),260(g),313(g),546(r)
                                                    356(r),265(g),347(r),463(r)
                                                    446(r)
   585. BD*(   1) C  15 - C  16          0.02357     0.44417   
   586. BD*(   1) C  15 - H  24          0.01357     0.32641   
   587. BD*(   1) C  16 - C  18          0.02476     0.53413   
   588. BD*(   1) C  16 - C  22          0.03576     0.50791   
   589. BD*(   2) C  16 - C  22          0.45255    -0.00076  581(v),610(r),347(g),463(v)
                                                    609(r),433(v),546(r),594(v)
                                                    449(g),608(r),331(v),603(g)
                                                    348(g),349(g),604(r),607(r)
                                                    611(r),605(r)
   590. BD*(   1) C  17 - H  30          0.00588     0.38416   
   591. BD*(   1) C  17 - H  31          0.01030    -2.02474   
   592. BD*(   1) C  17 - H  32          0.00489    -3.13150   
   593. BD*(   1) C  18 - C  19          0.01493    -5.29539   
   594. BD*(   2) C  18 - C  19          0.29310     3.70864  476(r),595(g),546(r),425(v)
                                                    431(r),427(v),403(g),550(r)
                                                    602(r),462(r),601(r),341(r)
                                                    443(r),444(r),430(r),338(r)
                                                    413(v),440(r),442(r),253(r)
                                                    603(r),418(v),556(r),423(v)
                                                    439(r),409(g),455(r),386(g)
                                                    446(r),451(r),459(r),597(g)
                                                    457(r),428(v),592(r),545(r)
                                                    478(r),404(g),591(r),441(r)
                                                    458(r),420(v),463(r),405(g)
                                                    548(r),465(r),456(r),502(r)
                                                    390(g),438(r),419(v),467(r)
                                                    542(v),350(v),396(g),355(v)
                                                    464(r),342(r),470(r),598(v)
                                                    422(v),448(r),473(r),385(g)
                                                    543(v),353(v),394(g),426(v)
                                                    551(r),483(r),382(g),408(g)
                                                    421(v),414(v),599(v),491(r)
                                                    579(r),339(r),452(r),343(r)
                                                    537(v),429(v),358(v),434(r)
                                                    517(r),512(r),320(r),460(r)
                                                    549(r),435(r),474(r),453(r)
                                                    454(r),538(v),437(r),397(g)
                                                    589(v),468(r),540(v),432(r)
                                                    587(g),485(r),113(r),600(v)
                                                    383(g),352(v),593(g),588(v)
                                                    487(r),401(g),387(g),544(v)
                                                    399(g),389(g),482(r),345(v)
                                                    596(g),507(r),205(r),433(r)
                                                    450(r),381(g),334(r),332(r)
                                                    222(r),610(r)
   595. BD*(   1) C  18 - H  33          0.01431     3.11636   
   596. BD*(   1) C  19 - C  20          0.01615     2.26874   
   597. BD*(   1) C  19 - H  34          0.01358    -0.88627   
   598. BD*(   1) C  20 - C  21          0.01712   -60.20989   
   599. BD*(   2) C  20 - C  21          0.32913   -15.21445  350(r),425(g),451(v),439(g)
                                                    422(g),420(g),421(g),419(g)
                                                    342(r),460(v),437(g),456(v)
                                                    438(g),556(v),552(v),444(g)
                                                    598(g),551(v),426(g),440(g)
                                                    601(g),452(v),555(v),600(g)
                                                    455(v),358(r),355(r),593(v)
                                                    602(g),442(g),429(g),427(g)
                                                    418(g),549(v),459(v),592(r)
                                                    554(v),448(v),517(r),353(r)
                                                    428(g),204(r),591(r),413(g)
                                                    546(v),434(g),446(g),545(v)
                                                    339(r),252(r),579(r),402(v)
                                                    343(r),338(r),550(v),356(r)
                                                    482(r),465(r),348(r),390(r)
                                                    462(v),222(r),404(v),597(v)
                                                    432(g),324(r),352(r),538(r)
                                                    537(r),347(r),548(v),485(r)
                                                    441(g),484(r),387(r),408(v)
                                                    603(v),401(v),424(g),385(r)
                                                    361(r),357(r),431(g),553(v)
                                                    205(r),354(r),345(r),414(g)
                                                    443(g),251(r),341(r),433(g)
                                                    400(v),463(r),386(r),270(r)
                                                    405(v),436(g),474(r),157(r)
                                                    470(r),394(r),430(g),389(r)
                                                    502(r),250(r),536(r),219(r)
                                                    346(r),445(g),457(v),435(g)
                                                    359(r),491(r),467(r),183(r)
                                                    113(r),130(r),454(v),476(r)
                                                    417(g),114(r),340(r),230(r)
                                                    483(r),578(r),119(r),360(r)
                                                    450(v),411(v),512(r),535(r)
                                                    91(r),169(r),544(r),468(r)
                                                    249(r),328(r),458(v),534(r)
                                                    274(r),564(r),481(r),368(r)
                                                    403(v),472(r),407(v),264(r)
                                                    384(r),246(r),586(r),453(v)
                                                    237(r),184(r),392(r),131(r)
                                                    507(r),516(r),271(r),122(r)
                                                    170(r),522(r),543(r),383(r)
                                                    316(r),254(r),165(r),447(v)
                                                    412(v),371(r),393(r),235(r)
                                                    410(v),480(r),212(r),120(r)
                                                    461(v),388(r),253(r),135(r)
                                                    487(r),95(r),336(r),187(r)
                                                    161(r),595(r),150(r),349(r)
                                                    596(g),365(r),233(r),295(r)
                                                    129(r),147(r),585(r),269(r)
                                                    185(r),323(r),268(r),234(r)
                                                    133(r),248(r),473(r),395(r)
                                                    115(r),146(r),267(r),563(r)
                                                    540(r),245(r),519(r),542(r)
                                                    179(r),409(v),469(r),492(r)
                                                    521(r),296(r),332(r),229(r)
                                                    464(r),224(r),513(r),367(r)
                                                    265(r),335(r),366(r),478(r)
                                                    330(r),215(r),364(r),103(r)
                                                    209(r),351(r),580(r),99(r)
                                                    391(r),132(r),337(r),117(r)
                                                    137(r),216(r),298(r),329(r)
                                                    96(r),587(r),125(r),164(r)
                                                    266(r),151(r),503(r),199(r)
                                                    273(r),558(r),186(r),315(r)
                                                    223(r),590(r),247(r),594(v)
                                                    523(r),372(r),310(r),134(r)
                                                    319(r),344(r),515(r),210(r)
                                                    106(r),166(r),317(r),194(r)
                                                    416(g),218(r),299(r),497(r)
                                                    200(r),547(v),109(r),108(r)
                                                    189(r),415(g),331(r),191(r)
                                                    116(r),152(r),221(r),149(r)
                                                    111(r),236(r),238(r),382(r)
                                                    136(r),501(r),92(r),118(r)
                                                    97(r),325(r),244(r),168(r)
                                                    98(r),293(r),486(r),524(r)
                                                    127(r),213(r),171(r),278(r)
                                                    158(r),241(r),396(v),100(r)
                                                    504(r),399(v),173(r),304(r)
                                                    533(r),577(r),498(r),163(r)
                                                    300(r),363(r),496(r),500(r)
                                                    214(r),217(r),277(r),572(r)
                                                    261(r),312(r),479(r),272(r)
   600. BD*(   1) C  20 - H  35          0.01310  -108.46067   
   601. BD*(   1) C  21 - C  22          0.02460    -6.97402   
   602. BD*(   1) C  21 - H  36          0.01348    -4.50364   
   603. BD*(   1) C  22 -Cl  23          0.03389     1.07355   
       -------------------------------
              Total Lewis  173.75017  ( 97.6125%)
        Valence non-Lewis    3.91146  (  2.1974%)
        Rydberg non-Lewis    0.33838  (  0.1901%)
       -------------------------------
            Total unit  1  178.00000  (100.0000%)
           Charge unit  1    0.00000
 Leave Link  607 at Wed Jul 10 09:39:40 2019, MaxMem=   209715200 cpu:        16.0
 (Enter C:\G09W\l9999.exe)
 1|1|UNPC-CCSC-02011910|FOpt|RB3LYP|6-311++G(d,p)|C18H13Cl2N1O2|EDUARDO
 .MELO|10-Jul-2019|0||#p opt b3lyp/6-311++g(d,p) pop=nbo geom=connectiv
 ity||10b.log||0,1|C,-1.2172171694,-1.9420116163,-1.091643876|C,-1.6230
 991557,-1.7163306327,0.2259898745|C,-1.5640192231,-2.7620212153,1.1481
 447171|C,-1.0997740587,-4.014499897,0.7551985244|C,-0.6644980699,-4.25
 08542555,-0.5523247741|C,-0.7328914853,-3.1910225749,-1.4643055751|N,-
 2.1575474719,-0.4605207617,0.6420695188|C,-1.7779596841,0.7790850264,0
 .2219838367|C,-2.5855071084,1.8769721041,0.1298551687|C,-0.4174905155,
 1.2426720997,-0.0901873026|C,-1.819228784,3.0278990131,-0.3044202661|O
 ,-0.4937881819,2.5691430637,-0.4564297746|Cl,-4.2799952412,1.929114237
 9,0.4477983749|O,-2.1166399865,4.1615538312,-0.5428466528|C,0.74581694
 43,0.5738591508,0.0322496206|C,2.1073385233,1.0392893008,-0.1951914091
 |C,-0.116382288,-5.5949579454,-0.964277187|C,2.4124383855,2.3077052356
 ,-0.7363967964|C,3.7216619592,2.7117931036,-0.9548991821|C,4.781520452
 ,1.864105608,-0.6376308349|C,4.521414938,0.6076037991,-0.0995233761|C,
 3.207848714,0.2083041854,0.1139929292|Cl,2.9673274167,-1.3979999591,0.
 8048720221|H,0.6489756454,-0.4526567675,0.3538751277|H,-1.2856934898,-
 1.1453499302,-1.8227961731|H,-1.8753074916,-2.589841688,2.1725631151|H
 ,-1.0647210105,-4.8169429282,1.4846262495|H,-0.4192276712,-3.348673517
 3,-2.4911017648|H,-3.095792888,-0.4962375193,1.0194049457|H,-0.3825922
 839,-5.8341196168,-1.9966739673|H,0.9769056302,-5.6085090814,-0.897713
 8591|H,-0.4945079176,-6.3937205919,-0.3227788625|H,1.5999110617,2.9740
 871439,-0.9841793676|H,3.9139898556,3.692746419,-1.3732393819|H,5.8064
 441339,2.1744193921,-0.8043681366|H,5.3301735164,-0.0644812161,0.15651
 14951||Version=IA32W-G09RevD.01|State=1-A|HF=-1819.6251255|RMSD=7.377e
 -009|RMSF=1.331e-005|Dipole=0.7418451,-2.2210667,0.0556684|Quadrupole=
 4.9345241,-6.3368333,1.4023092,12.8059972,-5.2404168,0.2785558|PG=C01 
 [X(C18H13Cl2N1O2)]||@


 SOME PEOPLE TRY TO PULL THE WOOL OVER YOUR EYES
 USING THE WRONG YARN.
 Job cpu time:       0 days 12 hours 28 minutes 49.0 seconds.
 File lengths (MBytes):  RWF=    221 Int=      0 D2E=      0 Chk=     25 Scr=      1
 Normal termination of Gaussian 09 at Wed Jul 10 09:39:41 2019.
