 Entering Link 1 = C:\G09W\l1.exe PID=      6120.
  
 Copyright (c) 1988,1990,1992,1993,1995,1998,2003,2009, Gaussian, Inc.
                  All Rights Reserved.
  
 This is part of the Gaussian(R) 09 program.  It is based on
 the Gaussian(R) 03 system (copyright 2003, Gaussian, Inc.),
 the Gaussian(R) 98 system (copyright 1998, Gaussian, Inc.),
 the Gaussian(R) 94 system (copyright 1995, Gaussian, Inc.),
 the Gaussian 92(TM) system (copyright 1992, Gaussian, Inc.),
 the Gaussian 90(TM) system (copyright 1990, Gaussian, Inc.),
 the Gaussian 88(TM) system (copyright 1988, Gaussian, Inc.),
 the Gaussian 86(TM) system (copyright 1986, Carnegie Mellon
 University), and the Gaussian 82(TM) system (copyright 1983,
 Carnegie Mellon University). Gaussian is a federally registered
 trademark of Gaussian, Inc.
  
 This software contains proprietary and confidential information,
 including trade secrets, belonging to Gaussian, Inc.
  
 This software is provided under written license and may be
 used, copied, transmitted, or stored only in accord with that
 written license.
  
 The following legend is applicable only to US Government
 contracts under FAR:
  
                    RESTRICTED RIGHTS LEGEND
  
 Use, reproduction and disclosure by the US Government is
 subject to restrictions as set forth in subparagraphs (a)
 and (c) of the Commercial Computer Software - Restricted
 Rights clause in FAR 52.227-19.
  
 Gaussian, Inc.
 340 Quinnipiac St., Bldg. 40, Wallingford CT 06492
  
  
 ---------------------------------------------------------------
 Warning -- This program may not be used in any manner that
 competes with the business of Gaussian, Inc. or will provide
 assistance to any competitor of Gaussian, Inc.  The licensee
 of this program is prohibited from giving any competitor of
 Gaussian, Inc. access to this program.  By using this program,
 the user acknowledges that Gaussian, Inc. is engaged in the
 business of creating and licensing software in the field of
 computational chemistry and represents and warrants to the
 licensee that it is not a competitor of Gaussian, Inc. and that
 it will not use this program in any manner prohibited above.
 ---------------------------------------------------------------
  

 Cite this work as:
 Gaussian 09, Revision A.02,
 M. J. Frisch, G. W. Trucks, H. B. Schlegel, G. E. Scuseria, 
 M. A. Robb, J. R. Cheeseman, G. Scalmani, V. Barone, B. Mennucci, 
 G. A. Petersson, H. Nakatsuji, M. Caricato, X. Li, H. P. Hratchian, 
 A. F. Izmaylov, J. Bloino, G. Zheng, J. L. Sonnenberg, M. Hada, 
 M. Ehara, K. Toyota, R. Fukuda, J. Hasegawa, M. Ishida, T. Nakajima, 
 Y. Honda, O. Kitao, H. Nakai, T. Vreven, J. A. Montgomery, Jr., 
 J. E. Peralta, F. Ogliaro, M. Bearpark, J. J. Heyd, E. Brothers, 
 K. N. Kudin, V. N. Staroverov, R. Kobayashi, J. Normand, 
 K. Raghavachari, A. Rendell, J. C. Burant, S. S. Iyengar, J. Tomasi, 
 M. Cossi, N. Rega, J. M. Millam, M. Klene, J. E. Knox, J. B. Cross, 
 V. Bakken, C. Adamo, J. Jaramillo, R. Gomperts, R. E. Stratmann, 
 O. Yazyev, A. J. Austin, R. Cammi, C. Pomelli, J. W. Ochterski, 
 R. L. Martin, K. Morokuma, V. G. Zakrzewski, G. A. Voth, 
 P. Salvador, J. J. Dannenberg, S. Dapprich, A. D. Daniels, 
 O. Farkas, J. B. Foresman, J. V. Ortiz, J. Cioslowski, 
 and D. J. Fox, Gaussian, Inc., Wallingford CT, 2009.
 
 ******************************************
 Gaussian 09:  IA32W-G09RevA.02 11-Jun-2009
                06-Jul-2019 
 ******************************************
 %nprocshared=4
 Will use up to    4 processors via shared memory.
 %mem=1600MB
 ----------------------------------------------------
 #p opt b3lyp/6-311++g(d,p) pop=nbo geom=connectivity
 ----------------------------------------------------
 1/14=-1,18=20,19=15,26=3,38=1,57=2/1,3;
 2/9=110,12=2,17=6,18=5,40=1/2;
 3/5=4,6=6,7=1111,11=2,16=1,25=1,30=1,71=1,74=-5/1,2,3;
 4//1;
 5/5=2,38=5/2;
 6/7=2,8=2,9=2,10=2,28=1/1,7;
 7//1,2,3,16;
 1/14=-1,18=20,19=15/3(2);
 2/9=110/2;
 99//99;
 2/9=110/2;
 3/5=4,6=6,7=1111,11=2,16=1,25=1,30=1,71=1,74=-5/1,2,3;
 4/5=5,16=3/1;
 5/5=2,38=5/2;
 7//1,2,3,16;
 1/14=-1,18=20,19=15/3(-5);
 2/9=110/2;
 6/7=2,8=2,9=2,10=2,19=2,28=1/1,7;
 99/9=1/99;
 Leave Link    1 at Sat Jul 06 10:35:53 2019, MaxMem=  209715200 cpu:       0.0
 (Enter C:\G09W\l101.exe)
 ------
 8a.log
 ------
 Symbolic Z-matrix:
 Charge =  0 Multiplicity = 1
 C                    -1.94724  -0.41166  -1.19667 
 C                    -1.26593  -0.56854   0.0003 
 C                    -1.94706  -0.40959   1.19709 
 C                    -3.29357  -0.08917   1.19306 
 C                    -3.98738   0.07794  -0.00005 
 C                    -3.29376  -0.09129  -1.19298 
 C                    -5.44967   0.45552  -0.00031 
 N                     0.11886  -0.91377   0.0005 
 C                     1.12757  -0.0247    0.00012 
 C                     2.44642  -0.23137   0.00007 
 C                     0.90945   1.46615  -0.00036 
 C                     3.14782   1.05096  -0.00041 
 O                     2.20033   2.01719  -0.00064 
 Cl                    3.25262  -1.74969   0.00048 
 O                     4.30299   1.28909  -0.0006 
 H                    -1.42247  -0.54749  -2.1257 
 H                    -1.42215  -0.54385   2.12628 
 H                    -3.80911   0.02843   2.13025 
 H                    -3.80945   0.02467  -2.13029 
 H                    -5.56819   1.53563  -0.0015 
 H                    -5.95538   0.06813  -0.87727 
 H                    -5.95519   0.07007   0.8776 
 H                     0.36676  -1.87793   0.00057 
 H                     0.37104   1.79355  -0.88099 
 H                     0.37118   1.79415   0.88014 
 
 NAtoms=     25 NQM=     25 NQMF=      0 NMic=      0 NMicF=      0 NTot=     25.
                    Isotopes and Nuclear Properties:
 (Nuclear quadrupole moments (NQMom) in fm**2, nuclear magnetic moments (NMagM)
  in nuclear magnetons)

  Atom         1           2           3           4           5           6           7           8           9          10
 IAtWgt=          12          12          12          12          12          12          12          14          12          12
 AtmWgt=  12.0000000  12.0000000  12.0000000  12.0000000  12.0000000  12.0000000  12.0000000  14.0030740  12.0000000  12.0000000
 NucSpn=           0           0           0           0           0           0           0           2           0           0
 AtZEff=   0.0000000   0.0000000   0.0000000   0.0000000   0.0000000   0.0000000   0.0000000   0.0000000   0.0000000   0.0000000
 NQMom=    0.0000000   0.0000000   0.0000000   0.0000000   0.0000000   0.0000000   0.0000000   2.0440000   0.0000000   0.0000000
 NMagM=    0.0000000   0.0000000   0.0000000   0.0000000   0.0000000   0.0000000   0.0000000   0.4037610   0.0000000   0.0000000

  Atom        11          12          13          14          15          16          17          18          19          20
 IAtWgt=          12          12          16          35          16           1           1           1           1           1
 AtmWgt=  12.0000000  12.0000000  15.9949146  34.9688527  15.9949146   1.0078250   1.0078250   1.0078250   1.0078250   1.0078250
 NucSpn=           0           0           0           3           0           1           1           1           1           1
 AtZEff=   0.0000000   0.0000000   0.0000000   0.0000000   0.0000000   0.0000000   0.0000000   0.0000000   0.0000000   0.0000000
 NQMom=    0.0000000   0.0000000   0.0000000  -8.1650000   0.0000000   0.0000000   0.0000000   0.0000000   0.0000000   0.0000000
 NMagM=    0.0000000   0.0000000   0.0000000   0.8218740   0.0000000   2.7928460   2.7928460   2.7928460   2.7928460   2.7928460

  Atom        21          22          23          24          25
 IAtWgt=           1           1           1           1           1
 AtmWgt=   1.0078250   1.0078250   1.0078250   1.0078250   1.0078250
 NucSpn=           1           1           1           1           1
 AtZEff=   0.0000000   0.0000000   0.0000000   0.0000000   0.0000000
 NQMom=    0.0000000   0.0000000   0.0000000   0.0000000   0.0000000
 NMagM=    2.7928460   2.7928460   2.7928460   2.7928460   2.7928460
 Leave Link  101 at Sat Jul 06 10:35:53 2019, MaxMem=  209715200 cpu:       0.0
 (Enter C:\G09W\l103.exe)

 GradGradGradGradGradGradGradGradGradGradGradGradGradGradGradGradGradGrad
 Berny optimization.
 Initialization pass.
                           ----------------------------
                           !    Initial Parameters    !
                           ! (Angstroms and Degrees)  !
 --------------------------                            --------------------------
 ! Name  Definition              Value          Derivative Info.                !
 --------------------------------------------------------------------------------
 ! R1    R(1,2)                  1.3862         estimate D2E/DX2                !
 ! R2    R(1,6)                  1.3841         estimate D2E/DX2                !
 ! R3    R(1,16)                 1.0756         estimate D2E/DX2                !
 ! R4    R(2,3)                  1.3862         estimate D2E/DX2                !
 ! R5    R(2,8)                  1.4272         estimate D2E/DX2                !
 ! R6    R(3,4)                  1.3841         estimate D2E/DX2                !
 ! R7    R(3,17)                 1.0756         estimate D2E/DX2                !
 ! R8    R(4,5)                  1.3903         estimate D2E/DX2                !
 ! R9    R(4,18)                 1.0761         estimate D2E/DX2                !
 ! R10   R(5,6)                  1.3903         estimate D2E/DX2                !
 ! R11   R(5,7)                  1.5103         estimate D2E/DX2                !
 ! R12   R(6,19)                 1.0761         estimate D2E/DX2                !
 ! R13   R(7,20)                 1.0866         estimate D2E/DX2                !
 ! R14   R(7,21)                 1.0839         estimate D2E/DX2                !
 ! R15   R(7,22)                 1.0839         estimate D2E/DX2                !
 ! R16   R(8,9)                  1.3446         estimate D2E/DX2                !
 ! R17   R(8,23)                 0.9955         estimate D2E/DX2                !
 ! R18   R(9,10)                 1.3349         estimate D2E/DX2                !
 ! R19   R(9,11)                 1.5067         estimate D2E/DX2                !
 ! R20   R(10,12)                1.4616         estimate D2E/DX2                !
 ! R21   R(10,14)                1.7191         estimate D2E/DX2                !
 ! R22   R(11,13)                1.4036         estimate D2E/DX2                !
 ! R23   R(11,24)                1.0829         estimate D2E/DX2                !
 ! R24   R(11,25)                1.0829         estimate D2E/DX2                !
 ! R25   R(12,13)                1.3533         estimate D2E/DX2                !
 ! R26   R(12,15)                1.1795         estimate D2E/DX2                !
 ! A1    A(2,1,6)              120.1354         estimate D2E/DX2                !
 ! A2    A(2,1,16)             119.4544         estimate D2E/DX2                !
 ! A3    A(6,1,16)             120.4089         estimate D2E/DX2                !
 ! A4    A(1,2,3)              119.4082         estimate D2E/DX2                !
 ! A5    A(1,2,8)              120.2913         estimate D2E/DX2                !
 ! A6    A(3,2,8)              120.2913         estimate D2E/DX2                !
 ! A7    A(2,3,4)              120.1357         estimate D2E/DX2                !
 ! A8    A(2,3,17)             119.4544         estimate D2E/DX2                !
 ! A9    A(4,3,17)             120.4086         estimate D2E/DX2                !
 ! A10   A(3,4,5)              121.0521         estimate D2E/DX2                !
 ! A11   A(3,4,18)             119.2643         estimate D2E/DX2                !
 ! A12   A(5,4,18)             119.6833         estimate D2E/DX2                !
 ! A13   A(4,5,6)              118.2143         estimate D2E/DX2                !
 ! A14   A(4,5,7)              120.8907         estimate D2E/DX2                !
 ! A15   A(6,5,7)              120.8874         estimate D2E/DX2                !
 ! A16   A(1,6,5)              121.0524         estimate D2E/DX2                !
 ! A17   A(1,6,19)             119.2646         estimate D2E/DX2                !
 ! A18   A(5,6,19)             119.6827         estimate D2E/DX2                !
 ! A19   A(5,7,20)             110.7405         estimate D2E/DX2                !
 ! A20   A(5,7,21)             111.2553         estimate D2E/DX2                !
 ! A21   A(5,7,22)             111.2555         estimate D2E/DX2                !
 ! A22   A(20,7,21)            107.6676         estimate D2E/DX2                !
 ! A23   A(20,7,22)            107.6683         estimate D2E/DX2                !
 ! A24   A(21,7,22)            108.0959         estimate D2E/DX2                !
 ! A25   A(2,8,9)              124.6085         estimate D2E/DX2                !
 ! A26   A(2,8,23)             118.4181         estimate D2E/DX2                !
 ! A27   A(9,8,23)             116.9734         estimate D2E/DX2                !
 ! A28   A(8,9,10)             129.7008         estimate D2E/DX2                !
 ! A29   A(8,9,11)             123.069          estimate D2E/DX2                !
 ! A30   A(10,9,11)            107.2302         estimate D2E/DX2                !
 ! A31   A(9,10,12)            109.7712         estimate D2E/DX2                !
 ! A32   A(9,10,14)            126.874          estimate D2E/DX2                !
 ! A33   A(12,10,14)           123.3549         estimate D2E/DX2                !
 ! A34   A(9,11,13)            104.7924         estimate D2E/DX2                !
 ! A35   A(9,11,24)            111.8021         estimate D2E/DX2                !
 ! A36   A(9,11,25)            111.8031         estimate D2E/DX2                !
 ! A37   A(13,11,24)           109.7806         estimate D2E/DX2                !
 ! A38   A(13,11,25)           109.7803         estimate D2E/DX2                !
 ! A39   A(24,11,25)           108.816          estimate D2E/DX2                !
 ! A40   A(10,12,13)           106.8837         estimate D2E/DX2                !
 ! A41   A(10,12,15)           130.3253         estimate D2E/DX2                !
 ! A42   A(13,12,15)           122.791          estimate D2E/DX2                !
 ! A43   A(11,13,12)           111.3225         estimate D2E/DX2                !
 ! D1    D(6,1,2,3)              0.383          estimate D2E/DX2                !
 ! D2    D(6,1,2,8)            179.2864         estimate D2E/DX2                !
 ! D3    D(16,1,2,3)          -179.2038         estimate D2E/DX2                !
 ! D4    D(16,1,2,8)            -0.3004         estimate D2E/DX2                !
 ! D5    D(2,1,6,5)             -0.0458         estimate D2E/DX2                !
 ! D6    D(2,1,6,19)          -179.8425         estimate D2E/DX2                !
 ! D7    D(16,1,6,5)           179.537          estimate D2E/DX2                !
 ! D8    D(16,1,6,19)           -0.2596         estimate D2E/DX2                !
 ! D9    D(1,2,3,4)             -0.3857         estimate D2E/DX2                !
 ! D10   D(1,2,3,17)           179.2016         estimate D2E/DX2                !
 ! D11   D(8,2,3,4)           -179.2891         estimate D2E/DX2                !
 ! D12   D(8,2,3,17)             0.2981         estimate D2E/DX2                !
 ! D13   D(1,2,8,9)             90.5772         estimate D2E/DX2                !
 ! D14   D(1,2,8,23)           -89.3985         estimate D2E/DX2                !
 ! D15   D(3,2,8,9)            -90.5291         estimate D2E/DX2                !
 ! D16   D(3,2,8,23)            89.4953         estimate D2E/DX2                !
 ! D17   D(2,3,4,5)              0.0513         estimate D2E/DX2                !
 ! D18   D(2,3,4,18)           179.8438         estimate D2E/DX2                !
 ! D19   D(17,3,4,5)          -179.532          estimate D2E/DX2                !
 ! D20   D(17,3,4,18)            0.2606         estimate D2E/DX2                !
 ! D21   D(3,4,5,6)              0.2817         estimate D2E/DX2                !
 ! D22   D(3,4,5,7)           -178.7259         estimate D2E/DX2                !
 ! D23   D(18,4,5,6)          -179.51           estimate D2E/DX2                !
 ! D24   D(18,4,5,7)             1.4824         estimate D2E/DX2                !
 ! D25   D(4,5,6,1)             -0.2844         estimate D2E/DX2                !
 ! D26   D(4,5,6,19)           179.5114         estimate D2E/DX2                !
 ! D27   D(7,5,6,1)            178.7232         estimate D2E/DX2                !
 ! D28   D(7,5,6,19)            -1.481          estimate D2E/DX2                !
 ! D29   D(4,5,7,20)            89.5033         estimate D2E/DX2                !
 ! D30   D(4,5,7,21)          -150.7931         estimate D2E/DX2                !
 ! D31   D(4,5,7,22)           -30.2012         estimate D2E/DX2                !
 ! D32   D(6,5,7,20)           -89.4777         estimate D2E/DX2                !
 ! D33   D(6,5,7,21)            30.226          estimate D2E/DX2                !
 ! D34   D(6,5,7,22)           150.8178         estimate D2E/DX2                !
 ! D35   D(2,8,9,10)          -179.9901         estimate D2E/DX2                !
 ! D36   D(2,8,9,11)             0.0098         estimate D2E/DX2                !
 ! D37   D(23,8,9,10)           -0.0141         estimate D2E/DX2                !
 ! D38   D(23,8,9,11)          179.9858         estimate D2E/DX2                !
 ! D39   D(8,9,10,12)          180.0            estimate D2E/DX2                !
 ! D40   D(8,9,10,14)            0.0008         estimate D2E/DX2                !
 ! D41   D(11,9,10,12)           0.0            estimate D2E/DX2                !
 ! D42   D(11,9,10,14)        -179.9992         estimate D2E/DX2                !
 ! D43   D(8,9,11,13)          179.9997         estimate D2E/DX2                !
 ! D44   D(8,9,11,24)          -61.1439         estimate D2E/DX2                !
 ! D45   D(8,9,11,25)           61.1431         estimate D2E/DX2                !
 ! D46   D(10,9,11,13)          -0.0004         estimate D2E/DX2                !
 ! D47   D(10,9,11,24)         118.8561         estimate D2E/DX2                !
 ! D48   D(10,9,11,25)        -118.857          estimate D2E/DX2                !
 ! D49   D(9,10,12,13)           0.0004         estimate D2E/DX2                !
 ! D50   D(9,10,12,15)        -179.9997         estimate D2E/DX2                !
 ! D51   D(14,10,12,13)        179.9996         estimate D2E/DX2                !
 ! D52   D(14,10,12,15)         -0.0005         estimate D2E/DX2                !
 ! D53   D(9,11,13,12)           0.0006         estimate D2E/DX2                !
 ! D54   D(24,11,13,12)       -120.2106         estimate D2E/DX2                !
 ! D55   D(25,11,13,12)        120.2129         estimate D2E/DX2                !
 ! D56   D(10,12,13,11)         -0.0006         estimate D2E/DX2                !
 ! D57   D(15,12,13,11)        179.9995         estimate D2E/DX2                !
 --------------------------------------------------------------------------------
 Trust Radius=3.00D-01 FncErr=1.00D-07 GrdErr=1.00D-06
 Number of steps in this run= 136 maximum allowed number of steps= 150.
 GradGradGradGradGradGradGradGradGradGradGradGradGradGradGradGradGradGrad

 Leave Link  103 at Sat Jul 06 10:35:53 2019, MaxMem=  209715200 cpu:       0.0
 (Enter C:\G09W\l202.exe)
                          Input orientation:                          
 ---------------------------------------------------------------------
 Center     Atomic      Atomic             Coordinates (Angstroms)
 Number     Number       Type             X           Y           Z
 ---------------------------------------------------------------------
      1          6           0       -1.947244   -0.411657   -1.196669
      2          6           0       -1.265932   -0.568542    0.000301
      3          6           0       -1.947061   -0.409585    1.197093
      4          6           0       -3.293569   -0.089169    1.193061
      5          6           0       -3.987377    0.077939   -0.000052
      6          6           0       -3.293757   -0.091291   -1.192983
      7          6           0       -5.449669    0.455523   -0.000313
      8          7           0        0.118858   -0.913773    0.000497
      9          6           0        1.127570   -0.024696    0.000117
     10          6           0        2.446416   -0.231371    0.000071
     11          6           0        0.909445    1.466147   -0.000356
     12          6           0        3.147818    1.050960   -0.000413
     13          8           0        2.200332    2.017191   -0.000641
     14         17           0        3.252620   -1.749689    0.000482
     15          8           0        4.302991    1.289087   -0.000596
     16          1           0       -1.422467   -0.547491   -2.125698
     17          1           0       -1.422154   -0.543846    2.126277
     18          1           0       -3.809108    0.028432    2.130251
     19          1           0       -3.809452    0.024668   -2.130294
     20          1           0       -5.568193    1.535631   -0.001502
     21          1           0       -5.955378    0.068127   -0.877270
     22          1           0       -5.955191    0.070069    0.877602
     23          1           0        0.366761   -1.877931    0.000574
     24          1           0        0.371037    1.793551   -0.880988
     25          1           0        0.371178    1.794148    0.880137
 ---------------------------------------------------------------------
                    Distance matrix (angstroms):
                    1          2          3          4          5
     1  C    0.000000
     2  C    1.386195   0.000000
     3  C    2.393763   1.386187   0.000000
     4  C    2.761775   2.400789   1.384112   0.000000
     5  C    2.415313   2.797177   2.415311   1.390257   0.000000
     6  C    1.384104   2.400785   2.761768   2.386045   1.390263
     7  C    3.801348   4.307246   3.801376   2.523806   1.510254
     8  N    2.440103   1.427175   2.440096   3.707673   4.224294
     9  C    3.322125   2.454510   3.321784   4.579710   5.115977
    10  C    4.557295   3.727628   4.557111   5.864373   6.441224
    11  C    3.621876   2.978628   3.621033   4.637734   5.089792
    12  C    5.434145   4.701487   5.433692   6.649492   7.201234
    13  O    4.952996   4.324466   4.952240   6.003718   6.484477
    14  Cl   5.501099   4.670377   5.501312   6.858000   7.467113
    15  O    6.586999   5.870578   6.586585   7.812306   8.378370
    16  H    1.075610   2.131858   3.366772   3.837348   3.389439
    17  H    3.366773   2.131851   1.075610   2.140051   3.389434
    18  H    3.837787   3.370580   2.128347   1.076074   2.138322
    19  H    2.128345   3.370583   3.837783   3.365083   2.138323
    20  H    4.281545   4.789258   4.281716   3.039880   2.150313
    21  H    4.049364   4.813147   4.538479   3.375832   2.154678
    22  H    4.538535   4.813173   4.049352   2.684977   2.154676
    23  H    2.989644   2.092889   2.990229   4.244963   4.773253
    24  H    3.215124   3.005964   3.813897   4.612554   4.766041
    25  H    3.814942   3.006085   3.214208   4.132212   4.766247
                    6          7          8          9         10
     6  C    0.000000
     7  C    2.523772   0.000000
     8  N    3.707669   5.734411   0.000000
     9  C    4.579962   6.594747   1.344603   0.000000
    10  C    5.864519   7.925906   2.425531   1.334942   0.000000
    11  C    4.638413   6.438920   2.507797   1.506715   2.289945
    12  C    6.649876   8.618081   3.610371   2.288763   1.461622
    13  O    6.004364   7.807773   3.594869   2.306539   2.261988
    14  Cl   6.857820   8.977349   3.243335   2.737049   1.719085
    15  O    7.812670   9.788218   4.728590   3.436470   2.399722
    16  H    2.140047   4.662795   2.651519   3.360817   4.425729
    17  H    3.837342   4.662832   2.651510   3.360233   4.425407
    18  H    3.365086   2.722710   4.566456   5.376903   6.613376
    19  H    1.076076   2.722640   4.566460   5.377292   6.613614
    20  H    3.039665   1.086592   6.192102   6.875163   8.207086
    21  H    2.685017   1.083915   6.215380   7.137687   8.452785
    22  H    3.375884   1.083911   6.215411   7.137539   8.452688
    23  H    4.244532   6.267046   0.995518   2.003325   2.652570
    24  H    4.132879   6.037096   2.858358   2.157478   3.030474
    25  H    4.613508   6.037331   2.858368   2.157489   3.030488
                   11         12         13         14         15
    11  C    0.000000
    12  C    2.276553   0.000000
    13  O    1.403581   1.353267   0.000000
    14  Cl   3.978954   2.802609   3.911099   0.000000
    15  O    3.398162   1.179461   2.225154   3.215189   0.000000
    16  H    3.742944   5.287664   4.921192   5.274691   6.377299
    17  H    3.741523   5.286857   4.919867   5.275090   6.376560
    18  H    5.373198   7.347388   6.679014   7.587202   8.481504
    19  H    5.374243   7.348012   6.680050   7.586924   8.482105
    20  H    6.478011   8.729476   7.783436   9.412761   9.874262
    21  H    7.060399   9.197990   8.431070   9.426671  10.367904
    22  H    7.059963   9.197708   8.430608   9.426804  10.367620
    23  H    3.387826   4.038896   4.305109   2.888707   5.052119
    24  H    1.082862   3.006221   2.042387   4.651350   4.060768
    25  H    1.082859   3.006231   2.042382   4.651374   4.060780
                   16         17         18         19         20
    16  H    0.000000
    17  H    4.251977   0.000000
    18  H    4.913333   2.454601   0.000000
    19  H    2.454605   4.913328   4.260547   0.000000
    20  H    5.102808   5.103068   3.148079   3.147687   0.000000
    21  H    4.741818   5.472287   3.695028   2.485348   1.752270
    22  H    5.472365   4.741783   2.485264   3.695091   1.752274
    23  H    3.080980   3.081982   5.060398   5.059766   6.846611
    24  H    3.201006   4.209822   5.445807   4.708099   6.009532
    25  H    4.211351   3.199237   4.706945   5.447148   6.010012
                   21         22         23         24         25
    21  H    0.000000
    22  H    1.754873   0.000000
    23  H    6.672870   6.673152   0.000000
    24  H    6.557486   6.788534   3.775838   0.000000
    25  H    6.789178   6.557088   3.775952   1.761125   0.000000
 Stoichiometry    C11H10ClNO2
 Framework group  C1[X(C11H10ClNO2)]
 Deg. of freedom    69
 Full point group                 C1      NOp   1
 Largest Abelian subgroup         C1      NOp   1
 Largest concise Abelian subgroup C1      NOp   1
                         Standard orientation:                         
 ---------------------------------------------------------------------
 Center     Atomic      Atomic             Coordinates (Angstroms)
 Number     Number       Type             X           Y           Z
 ---------------------------------------------------------------------
      1          6           0       -1.947244   -0.411657   -1.196669
      2          6           0       -1.265932   -0.568542    0.000301
      3          6           0       -1.947061   -0.409585    1.197093
      4          6           0       -3.293569   -0.089169    1.193061
      5          6           0       -3.987377    0.077939   -0.000052
      6          6           0       -3.293757   -0.091291   -1.192983
      7          6           0       -5.449669    0.455523   -0.000313
      8          7           0        0.118858   -0.913773    0.000497
      9          6           0        1.127570   -0.024696    0.000117
     10          6           0        2.446416   -0.231371    0.000071
     11          6           0        0.909445    1.466147   -0.000356
     12          6           0        3.147818    1.050960   -0.000413
     13          8           0        2.200332    2.017191   -0.000641
     14         17           0        3.252620   -1.749689    0.000482
     15          8           0        4.302991    1.289087   -0.000596
     16          1           0       -1.422467   -0.547491   -2.125698
     17          1           0       -1.422154   -0.543846    2.126277
     18          1           0       -3.809108    0.028432    2.130251
     19          1           0       -3.809452    0.024668   -2.130294
     20          1           0       -5.568193    1.535631   -0.001502
     21          1           0       -5.955378    0.068127   -0.877270
     22          1           0       -5.955191    0.070069    0.877602
     23          1           0        0.366761   -1.877931    0.000574
     24          1           0        0.371037    1.793551   -0.880988
     25          1           0        0.371178    1.794148    0.880137
 ---------------------------------------------------------------------
 Rotational constants (GHZ):      1.3897135      0.2406756      0.2213014
 Leave Link  202 at Sat Jul 06 10:35:53 2019, MaxMem=  209715200 cpu:       0.0
 (Enter C:\G09W\l301.exe)
 Standard basis: 6-311++G(d,p) (5D, 7F)
 Ernie: Thresh=  0.10000D-02 Tol=  0.10000D-05 Strict=F.
 There are   408 symmetry adapted basis functions of A   symmetry.
 Integral buffers will be    262144 words long.
 Raffenetti 2 integral format.
 Two-electron integral symmetry is turned on.
   408 basis functions,   647 primitive gaussians,   423 cartesian basis functions
    58 alpha electrons       58 beta electrons
       nuclear repulsion energy      1027.4689743352 Hartrees.
 IExCor=  402 DFT=T Ex+Corr=B3LYP ExCW=0 ScaHFX=  0.200000
 ScaDFX=  0.800000  0.720000  1.000000  0.810000 ScalE2=  1.000000  1.000000
 IRadAn=      0 IRanWt=     -1 IRanGd=            0 ICorTp=0
 NAtoms=   25 NActive=   25 NUniq=   25 SFac= 7.50D-01 NAtFMM=   80 NAOKFM=F Big=F
 Leave Link  301 at Sat Jul 06 10:35:53 2019, MaxMem=  209715200 cpu:       0.0
 (Enter C:\G09W\l302.exe)
 NPDir=0 NMtPBC=     1 NCelOv=     1 NCel=       1 NClECP=     1 NCelD=      1
         NCelK=      1 NCelE2=     1 NClLst=     1 CellRange=     0.0.
 One-electron integrals computed using PRISM.
 NBasis=   408 RedAO= T  NBF=   408
 NBsUse=   407 1.00D-06 NBFU=   407
 Precomputing XC quadrature grid using
 IXCGrd= 2 IRadAn=           0 IRanWt=          -1 IRanGd=           0 AccXCQ= 1.00D-10.
 NRdTot=    1623 NPtTot=      207382 NUsed=      214949 NTot=      214965
 NSgBfM=   417   417   417   417   417 NAtAll=    25    25.
 Leave Link  302 at Sat Jul 06 10:35:54 2019, MaxMem=  209715200 cpu:       1.0
 (Enter C:\G09W\l303.exe)
 DipDrv:  MaxL=1.
 Leave Link  303 at Sat Jul 06 10:35:55 2019, MaxMem=  209715200 cpu:       1.0
 (Enter C:\G09W\l401.exe)
 Harris functional with IExCor=  402 diagonalized for initial guess.
 ExpMin= 3.60D-02 ExpMax= 1.06D+05 ExpMxC= 3.62D+03 IAcc=3 IRadAn=         0 AccDes= 0.00D+00
 HarFok:  IExCor=  402 AccDes= 0.00D+00 IRadAn=         0 IDoV= 1
 ScaDFX=  1.000000  1.000000  1.000000  1.000000
 FoFCou: FMM=F IPFlag=           0 FMFlag=      100000 FMFlg1=           0
         NFxFlg=           0 DoJE=T BraDBF=F KetDBF=T FulRan=T
         Omega=  0.000000  0.000000  1.000000  0.000000  0.000000 ICntrl=     500 IOpCl=  0
         NMat0=    1 NMatS0=    1 NMatT0=    0 NMatD0=    1 NMtDS0=    0 NMtDT0=    0
         I1Cent=           4 NGrid=           0.
 Petite list used in FoFCou.
 Harris En= -1090.85317646034    
 Initial guess orbital symmetries:
       Occupied  (A) (A) (A) (A) (A) (A) (A) (A) (A) (A) (A) (A)
                 (A) (A) (A) (A) (A) (A) (A) (A) (A) (A) (A) (A)
                 (A) (A) (A) (A) (A) (A) (A) (A) (A) (A) (A) (A)
                 (A) (A) (A) (A) (A) (A) (A) (A) (A) (A) (A) (A)
                 (A) (A) (A) (A) (A) (A) (A) (A) (A) (A)
       Virtual   (A) (A) (A) (A) (A) (A) (A) (A) (A) (A) (A) (A)
                 (A) (A) (A) (A) (A) (A) (A) (A) (A) (A) (A) (A)
                 (A) (A) (A) (A) (A) (A) (A) (A) (A) (A) (A) (A)
                 (A) (A) (A) (A) (A) (A) (A) (A) (A) (A) (A) (A)
                 (A) (A) (A) (A) (A) (A) (A) (A) (A) (A) (A) (A)
                 (A) (A) (A) (A) (A) (A) (A) (A) (A) (A) (A) (A)
                 (A) (A) (A) (A) (A) (A) (A) (A) (A) (A) (A) (A)
                 (A) (A) (A) (A) (A) (A) (A) (A) (A) (A) (A) (A)
                 (A) (A) (A) (A) (A) (A) (A) (A) (A) (A) (A) (A)
                 (A) (A) (A) (A) (A) (A) (A) (A) (A) (A) (A) (A)
                 (A) (A) (A) (A) (A) (A) (A) (A) (A) (A) (A) (A)
                 (A) (A) (A) (A) (A) (A) (A) (A) (A) (A) (A) (A)
                 (A) (A) (A) (A) (A) (A) (A) (A) (A) (A) (A) (A)
                 (A) (A) (A) (A) (A) (A) (A) (A) (A) (A) (A) (A)
                 (A) (A) (A) (A) (A) (A) (A) (A) (A) (A) (A) (A)
                 (A) (A) (A) (A) (A) (A) (A) (A) (A) (A) (A) (A)
                 (A) (A) (A) (A) (A) (A) (A) (A) (A) (A) (A) (A)
                 (A) (A) (A) (A) (A) (A) (A) (A) (A) (A) (A) (A)
                 (A) (A) (A) (A) (A) (A) (A) (A) (A) (A) (A) (A)
                 (A) (A) (A) (A) (A) (A) (A) (A) (A) (A) (A) (A)
                 (A) (A) (A) (A) (A) (A) (A) (A) (A) (A) (A) (A)
                 (A) (A) (A) (A) (A) (A) (A) (A) (A) (A) (A) (A)
                 (A) (A) (A) (A) (A) (A) (A) (A) (A) (A) (A) (A)
                 (A) (A) (A) (A) (A) (A) (A) (A) (A) (A) (A) (A)
                 (A) (A) (A) (A) (A) (A) (A) (A) (A) (A) (A) (A)
                 (A) (A) (A) (A) (A) (A) (A) (A) (A) (A) (A) (A)
                 (A) (A) (A) (A) (A) (A) (A) (A) (A) (A) (A) (A)
                 (A) (A) (A) (A) (A) (A) (A) (A) (A) (A) (A) (A)
                 (A) (A) (A) (A) (A) (A) (A) (A) (A) (A) (A) (A)
                 (A)
 The electronic state of the initial guess is 1-A.
 Leave Link  401 at Sat Jul 06 10:36:00 2019, MaxMem=  209715200 cpu:       5.0
 (Enter C:\G09W\l502.exe)
 Closed shell SCF:
 Requested convergence on RMS density matrix=1.00D-08 within 128 cycles.
 Requested convergence on MAX density matrix=1.00D-06.
 Requested convergence on             energy=1.00D-06.
 No special actions if energy rises.
 Using DIIS extrapolation, IDIIS=  1040.
 Integral symmetry usage will be decided dynamically.
       214736 words used for storage of precomputed grid.
 IEnd=      774826 IEndB=      774826 NGot=   209715200 MDV=   209136367
 LenX=   209136367 LenY=   208956997
 Fock matrices will be formed incrementally for  20 cycles.

 Cycle   1  Pass 1  IDiag  1:
 FoFCou: FMM=F IPFlag=           0 FMFlag=      100000 FMFlg1=           0
         NFxFlg=           0 DoJE=F BraDBF=F KetDBF=F FulRan=T
         Omega=  0.000000  0.000000  1.000000  0.000000  0.000000 ICntrl=       0 IOpCl=  0
         NMat0=    1 NMatS0=    1 NMatT0=    0 NMatD0=    1 NMtDS0=    0 NMtDT0=    0
         I1Cent=           0 NGrid=           0.
 Symmetry not used in FoFCou.
 E= -1090.40069099909    
 DIIS: error= 2.34D-02 at cycle   1 NSaved=   1.
 NSaved= 1 IEnMin= 1 EnMin= -1090.40069099909     IErMin= 1 ErrMin= 2.34D-02
 ErrMax= 2.34D-02 EMaxC= 1.00D-01 BMatC= 4.83D-01 BMatP= 4.83D-01
 IDIUse=3 WtCom= 7.66D-01 WtEn= 2.34D-01
 Coeff-Com:  0.100D+01
 Coeff-En:   0.100D+01
 Coeff:      0.100D+01
 Gap=     0.280 Goal=   None    Shift=    0.000
 GapD=    0.280 DampG=1.000 DampE=0.500 DampFc=0.5000 IDamp=-1.
 Damping current iteration by 5.00D-01
 RMSDP=2.76D-02 MaxDP=2.46D+00              OVMax= 2.75D-01

 Cycle   2  Pass 1  IDiag  1:
 RMSU=  8.03D-03    CP:  8.92D-01
 E= -1090.53604341180     Delta-E=       -0.135352412710 Rises=F Damp=T
 DIIS: error= 9.06D-03 at cycle   2 NSaved=   2.
 NSaved= 2 IEnMin= 2 EnMin= -1090.53604341180     IErMin= 2 ErrMin= 9.06D-03
 ErrMax= 9.06D-03 EMaxC= 1.00D-01 BMatC= 5.23D-02 BMatP= 4.83D-01
 IDIUse=3 WtCom= 9.09D-01 WtEn= 9.06D-02
 Coeff-Com:  0.126D+00 0.874D+00
 Coeff-En:   0.254D+00 0.746D+00
 Coeff:      0.138D+00 0.862D+00
 Gap=     0.297 Goal=   None    Shift=    0.000
 RMSDP=1.74D-02 MaxDP=3.71D+00 DE=-1.35D-01 OVMax= 2.18D-01

 Cycle   3  Pass 1  IDiag  1:
 RMSU=  7.00D-03    CP:  7.13D-01  4.84D-01
 E= -1090.72748628383     Delta-E=       -0.191442872026 Rises=F Damp=F
 DIIS: error= 1.62D-02 at cycle   3 NSaved=   3.
 NSaved= 3 IEnMin= 3 EnMin= -1090.72748628383     IErMin= 2 ErrMin= 9.06D-03
 ErrMax= 1.62D-02 EMaxC= 1.00D-01 BMatC= 7.43D-02 BMatP= 5.23D-02
 IDIUse=2 WtCom= 0.00D+00 WtEn= 1.00D+00
 Coeff-En:   0.000D+00 0.000D+00 0.100D+01
 Coeff:      0.000D+00 0.000D+00 0.100D+01
 Gap=     0.213 Goal=   None    Shift=    0.000
 RMSDP=1.26D-02 MaxDP=1.60D+00 DE=-1.91D-01 OVMax= 3.39D-01

 Cycle   4  Pass 1  IDiag  1:
 RMSU=  5.36D-03    CP:  6.29D-01  1.16D+00  1.22D+00
 E= -1090.41683237982     Delta-E=        0.310653904010 Rises=F Damp=F
 DIIS: error= 4.22D-02 at cycle   4 NSaved=   4.
 NSaved= 4 IEnMin= 3 EnMin= -1090.72748628383     IErMin= 2 ErrMin= 9.06D-03
 ErrMax= 4.22D-02 EMaxC= 1.00D-01 BMatC= 4.56D-01 BMatP= 5.23D-02
 IDIUse=2 WtCom= 0.00D+00 WtEn= 1.00D+00
 Coeff-En:   0.000D+00 0.000D+00 0.809D+00 0.191D+00
 Coeff:      0.000D+00 0.000D+00 0.809D+00 0.191D+00
 Gap=     0.196 Goal=   None    Shift=    0.000
 RMSDP=6.20D-03 MaxDP=5.67D-01 DE= 3.11D-01 OVMax= 1.27D-01

 Cycle   5  Pass 1  IDiag  1:
 RMSU=  9.27D-04    CP:  6.49D-01  8.08D-01  1.13D+00  4.43D-01
 E= -1090.75510241863     Delta-E=       -0.338270038817 Rises=F Damp=F
 DIIS: error= 1.21D-02 at cycle   5 NSaved=   5.
 NSaved= 5 IEnMin= 5 EnMin= -1090.75510241863     IErMin= 2 ErrMin= 9.06D-03
 ErrMax= 1.21D-02 EMaxC= 1.00D-01 BMatC= 3.88D-02 BMatP= 5.23D-02
 IDIUse=3 WtCom= 8.79D-01 WtEn= 1.21D-01
 Coeff-Com:  0.104D-02 0.243D-01 0.327D+00-0.920D-01 0.740D+00
 Coeff-En:   0.000D+00 0.000D+00 0.382D+00 0.000D+00 0.618D+00
 Coeff:      0.915D-03 0.214D-01 0.333D+00-0.809D-01 0.725D+00
 Gap=     0.192 Goal=   None    Shift=    0.000
 RMSDP=2.30D-03 MaxDP=2.51D-01 DE=-3.38D-01 OVMax= 4.86D-02

 Cycle   6  Pass 1  IDiag  1:
 RMSU=  2.46D-04    CP:  6.61D-01  6.81D-01  1.10D+00  2.45D-01  8.97D-01
 E= -1090.78506075333     Delta-E=       -0.029958334696 Rises=F Damp=F
 DIIS: error= 9.54D-04 at cycle   6 NSaved=   6.
 NSaved= 6 IEnMin= 6 EnMin= -1090.78506075333     IErMin= 6 ErrMin= 9.54D-04
 ErrMax= 9.54D-04 EMaxC= 1.00D-01 BMatC= 1.13D-04 BMatP= 3.88D-02
 IDIUse=3 WtCom= 9.90D-01 WtEn= 9.54D-03
 Coeff-Com:  0.319D-03 0.796D-02 0.158D+00-0.551D-01 0.399D+00 0.490D+00
 Coeff-En:   0.000D+00 0.000D+00 0.000D+00 0.000D+00 0.000D+00 0.100D+01
 Coeff:      0.316D-03 0.788D-02 0.157D+00-0.546D-01 0.395D+00 0.495D+00
 Gap=     0.190 Goal=   None    Shift=    0.000
 RMSDP=2.09D-04 MaxDP=1.76D-02 DE=-3.00D-02 OVMax= 5.19D-03

 Cycle   7  Pass 1  IDiag  1:
 RMSU=  7.19D-05    CP:  6.60D-01  6.89D-01  1.10D+00  2.53D-01  9.39D-01
                    CP:  6.57D-01
 E= -1090.78514515701     Delta-E=       -0.000084403683 Rises=F Damp=F
 DIIS: error= 5.49D-04 at cycle   7 NSaved=   7.
 NSaved= 7 IEnMin= 7 EnMin= -1090.78514515701     IErMin= 7 ErrMin= 5.49D-04
 ErrMax= 5.49D-04 EMaxC= 1.00D-01 BMatC= 2.80D-05 BMatP= 1.13D-04
 IDIUse=3 WtCom= 9.95D-01 WtEn= 5.49D-03
 Coeff-Com:  0.569D-03-0.923D-03 0.414D-01-0.165D-01 0.106D+00 0.298D+00
 Coeff-Com:  0.572D+00
 Coeff-En:   0.000D+00 0.000D+00 0.000D+00 0.000D+00 0.000D+00 0.224D+00
 Coeff-En:   0.776D+00
 Coeff:      0.566D-03-0.918D-03 0.412D-01-0.164D-01 0.105D+00 0.297D+00
 Coeff:      0.573D+00
 Gap=     0.190 Goal=   None    Shift=    0.000
 RMSDP=1.80D-04 MaxDP=2.39D-02 DE=-8.44D-05 OVMax= 2.16D-03

 Cycle   8  Pass 1  IDiag  1:
 RMSU=  3.06D-05    CP:  6.62D-01  6.80D-01  1.09D+00  2.44D-01  9.01D-01
                    CP:  7.44D-01  6.96D-01
 E= -1090.78517281903     Delta-E=       -0.000027662019 Rises=F Damp=F
 DIIS: error= 1.13D-04 at cycle   8 NSaved=   8.
 NSaved= 8 IEnMin= 8 EnMin= -1090.78517281903     IErMin= 8 ErrMin= 1.13D-04
 ErrMax= 1.13D-04 EMaxC= 1.00D-01 BMatC= 2.99D-06 BMatP= 2.80D-05
 IDIUse=3 WtCom= 9.99D-01 WtEn= 1.13D-03
 Coeff-Com:  0.512D-03-0.159D-02 0.120D-01-0.456D-02 0.268D-01 0.144D+00
 Coeff-Com:  0.369D+00 0.454D+00
 Coeff-En:   0.000D+00 0.000D+00 0.000D+00 0.000D+00 0.000D+00 0.000D+00
 Coeff-En:   0.000D+00 0.100D+01
 Coeff:      0.511D-03-0.158D-02 0.120D-01-0.456D-02 0.268D-01 0.143D+00
 Coeff:      0.369D+00 0.454D+00
 Gap=     0.190 Goal=   None    Shift=    0.000
 RMSDP=4.01D-05 MaxDP=5.44D-03 DE=-2.77D-05 OVMax= 6.39D-04

 Cycle   9  Pass 1  IDiag  1:
 RMSU=  1.01D-05    CP:  6.61D-01  6.81D-01  1.09D+00  2.46D-01  9.11D-01
                    CP:  7.33D-01  7.21D-01  5.99D-01
 E= -1090.78517536657     Delta-E=       -0.000002547542 Rises=F Damp=F
 DIIS: error= 3.43D-05 at cycle   9 NSaved=   9.
 NSaved= 9 IEnMin= 9 EnMin= -1090.78517536657     IErMin= 9 ErrMin= 3.43D-05
 ErrMax= 3.43D-05 EMaxC= 1.00D-01 BMatC= 1.49D-07 BMatP= 2.99D-06
 IDIUse=1 WtCom= 1.00D+00 WtEn= 0.00D+00
 Coeff-Com:  0.257D-03-0.825D-03 0.248D-02-0.860D-03 0.377D-02 0.511D-01
 Coeff-Com:  0.153D+00 0.244D+00 0.547D+00
 Coeff:      0.257D-03-0.825D-03 0.248D-02-0.860D-03 0.377D-02 0.511D-01
 Coeff:      0.153D+00 0.244D+00 0.547D+00
 Gap=     0.190 Goal=   None    Shift=    0.000
 RMSDP=7.81D-06 MaxDP=5.33D-04 DE=-2.55D-06 OVMax= 2.17D-04

 Cycle  10  Pass 1  IDiag  1:
 RMSU=  3.06D-06    CP:  6.61D-01  6.80D-01  1.09D+00  2.45D-01  9.10D-01
                    CP:  7.29D-01  7.35D-01  6.72D-01  8.89D-01
 E= -1090.78517548917     Delta-E=       -0.000000122597 Rises=F Damp=F
 DIIS: error= 8.30D-06 at cycle  10 NSaved=  10.
 NSaved=10 IEnMin=10 EnMin= -1090.78517548917     IErMin=10 ErrMin= 8.30D-06
 ErrMax= 8.30D-06 EMaxC= 1.00D-01 BMatC= 1.83D-08 BMatP= 1.49D-07
 IDIUse=1 WtCom= 1.00D+00 WtEn= 0.00D+00
 Coeff-Com:  0.542D-04-0.144D-03-0.155D-03 0.220D-04-0.888D-03 0.667D-02
 Coeff-Com:  0.238D-01 0.556D-01 0.302D+00 0.613D+00
 Coeff:      0.542D-04-0.144D-03-0.155D-03 0.220D-04-0.888D-03 0.667D-02
 Coeff:      0.238D-01 0.556D-01 0.302D+00 0.613D+00
 Gap=     0.190 Goal=   None    Shift=    0.000
 RMSDP=5.09D-06 MaxDP=6.60D-04 DE=-1.23D-07 OVMax= 5.69D-05

 Cycle  11  Pass 1  IDiag  1:
 RMSU=  9.68D-07    CP:  6.61D-01  6.80D-01  1.09D+00  2.45D-01  9.10D-01
                    CP:  7.32D-01  7.35D-01  6.47D-01  8.52D-01  7.58D-01
 E= -1090.78517550636     Delta-E=       -0.000000017194 Rises=F Damp=F
 DIIS: error= 1.72D-06 at cycle  11 NSaved=  11.
 NSaved=11 IEnMin=11 EnMin= -1090.78517550636     IErMin=11 ErrMin= 1.72D-06
 ErrMax= 1.72D-06 EMaxC= 1.00D-01 BMatC= 1.09D-09 BMatP= 1.83D-08
 IDIUse=1 WtCom= 1.00D+00 WtEn= 0.00D+00
 Coeff-Com:  0.103D-04-0.277D-04-0.209D-03 0.572D-04-0.622D-03 0.971D-03
 Coeff-Com:  0.371D-02 0.155D-01 0.116D+00 0.303D+00 0.562D+00
 Coeff:      0.103D-04-0.277D-04-0.209D-03 0.572D-04-0.622D-03 0.971D-03
 Coeff:      0.371D-02 0.155D-01 0.116D+00 0.303D+00 0.562D+00
 Gap=     0.190 Goal=   None    Shift=    0.000
 RMSDP=9.79D-07 MaxDP=1.50D-04 DE=-1.72D-08 OVMax= 6.46D-06

 Cycle  12  Pass 1  IDiag  1:
 RMSU=  1.98D-07    CP:  6.61D-01  6.80D-01  1.09D+00  2.45D-01  9.10D-01
                    CP:  7.32D-01  7.35D-01  6.50D-01  8.71D-01  7.63D-01
                    CP:  7.79D-01
 E= -1090.78517550715     Delta-E=       -0.000000000783 Rises=F Damp=F
 DIIS: error= 5.28D-07 at cycle  12 NSaved=  12.
 NSaved=12 IEnMin=12 EnMin= -1090.78517550715     IErMin=12 ErrMin= 5.28D-07
 ErrMax= 5.28D-07 EMaxC= 1.00D-01 BMatC= 1.23D-10 BMatP= 1.09D-09
 IDIUse=1 WtCom= 1.00D+00 WtEn= 0.00D+00
 Coeff-Com: -0.210D-05 0.401D-05-0.102D-03 0.319D-04-0.242D-03-0.147D-03
 Coeff-Com: -0.828D-03 0.230D-02 0.241D-01 0.888D-01 0.271D+00 0.615D+00
 Coeff:     -0.210D-05 0.401D-05-0.102D-03 0.319D-04-0.242D-03-0.147D-03
 Coeff:     -0.828D-03 0.230D-02 0.241D-01 0.888D-01 0.271D+00 0.615D+00
 Gap=     0.190 Goal=   None    Shift=    0.000
 RMSDP=3.66D-07 MaxDP=5.32D-05 DE=-7.83D-10 OVMax= 2.49D-06

 Cycle  13  Pass 1  IDiag  1:
 RMSU=  4.70D-08    CP:  6.61D-01  6.80D-01  1.09D+00  2.45D-01  9.10D-01
                    CP:  7.31D-01  7.35D-01  6.52D-01  8.74D-01  7.74D-01
                    CP:  7.56D-01  9.25D-01
 E= -1090.78517550725     Delta-E=       -0.000000000108 Rises=F Damp=F
 DIIS: error= 1.64D-07 at cycle  13 NSaved=  13.
 NSaved=13 IEnMin=13 EnMin= -1090.78517550725     IErMin=13 ErrMin= 1.64D-07
 ErrMax= 1.64D-07 EMaxC= 1.00D-01 BMatC= 8.48D-12 BMatP= 1.23D-10
 IDIUse=1 WtCom= 1.00D+00 WtEn= 0.00D+00
 Coeff-Com: -0.219D-05 0.408D-05-0.215D-04 0.676D-05-0.325D-04-0.111D-03
 Coeff-Com: -0.627D-03-0.359D-03-0.102D-02 0.786D-02 0.375D-01 0.190D+00
 Coeff-Com:  0.767D+00
 Coeff:     -0.219D-05 0.408D-05-0.215D-04 0.676D-05-0.325D-04-0.111D-03
 Coeff:     -0.627D-03-0.359D-03-0.102D-02 0.786D-02 0.375D-01 0.190D+00
 Coeff:      0.767D+00
 Gap=     0.190 Goal=   None    Shift=    0.000
 RMSDP=1.76D-07 MaxDP=2.79D-05 DE=-1.08D-10 OVMax= 6.19D-07

 Cycle  14  Pass 1  IDiag  1:
 RMSU=  1.71D-08    CP:  6.61D-01  6.80D-01  1.09D+00  2.45D-01  9.10D-01
                    CP:  7.32D-01  7.35D-01  6.52D-01  8.72D-01  7.74D-01
                    CP:  7.83D-01  8.98D-01  6.65D-01
 E= -1090.78517550724     Delta-E=        0.000000000016 Rises=F Damp=F
 DIIS: error= 3.61D-08 at cycle  14 NSaved=  14.
 NSaved=14 IEnMin=13 EnMin= -1090.78517550725     IErMin=14 ErrMin= 3.61D-08
 ErrMax= 3.61D-08 EMaxC= 1.00D-01 BMatC= 6.00D-13 BMatP= 8.48D-12
 IDIUse=1 WtCom= 1.00D+00 WtEn= 0.00D+00
 Coeff-Com: -0.797D-06 0.153D-05-0.394D-05 0.106D-05-0.646D-06-0.279D-04
 Coeff-Com: -0.190D-03-0.239D-03-0.172D-02-0.181D-02-0.392D-02 0.382D-01
 Coeff-Com:  0.352D+00 0.618D+00
 Coeff:     -0.797D-06 0.153D-05-0.394D-05 0.106D-05-0.646D-06-0.279D-04
 Coeff:     -0.190D-03-0.239D-03-0.172D-02-0.181D-02-0.392D-02 0.382D-01
 Coeff:      0.352D+00 0.618D+00
 Gap=     0.190 Goal=   None    Shift=    0.000
 RMSDP=1.44D-08 MaxDP=1.41D-06 DE= 1.64D-11 OVMax= 2.05D-07

 Cycle  15  Pass 1  IDiag  1:
 RMSU=  3.88D-09    CP:  6.61D-01  6.80D-01  1.09D+00  2.45D-01  9.10D-01
                    CP:  7.32D-01  7.35D-01  6.52D-01  8.72D-01  7.74D-01
                    CP:  7.81D-01  9.07D-01  7.34D-01  8.56D-01
 E= -1090.78517550722     Delta-E=        0.000000000018 Rises=F Damp=F
 DIIS: error= 1.26D-08 at cycle  15 NSaved=  15.
 NSaved=15 IEnMin=13 EnMin= -1090.78517550725     IErMin=15 ErrMin= 1.26D-08
 ErrMax= 1.26D-08 EMaxC= 1.00D-01 BMatC= 6.17D-14 BMatP= 6.00D-13
 IDIUse=1 WtCom= 1.00D+00 WtEn= 0.00D+00
 Coeff-Com: -0.197D-06 0.370D-06 0.289D-07-0.808D-07 0.285D-05-0.367D-05
 Coeff-Com: -0.403D-04-0.968D-04-0.856D-03-0.183D-02-0.636D-02 0.812D-03
 Coeff-Com:  0.106D+00 0.322D+00 0.580D+00
 Coeff:     -0.197D-06 0.370D-06 0.289D-07-0.808D-07 0.285D-05-0.367D-05
 Coeff:     -0.403D-04-0.968D-04-0.856D-03-0.183D-02-0.636D-02 0.812D-03
 Coeff:      0.106D+00 0.322D+00 0.580D+00
 Gap=     0.190 Goal=   None    Shift=    0.000
 RMSDP=1.45D-08 MaxDP=2.27D-06 DE= 1.82D-11 OVMax= 4.96D-08

 Cycle  16  Pass 1  IDiag  1:
 RMSU=  1.60D-09    CP:  6.61D-01  6.80D-01  1.09D+00  2.45D-01  9.10D-01
                    CP:  7.32D-01  7.35D-01  6.52D-01  8.72D-01  7.75D-01
                    CP:  7.78D-01  9.13D-01  7.48D-01  8.12D-01  8.04D-01
 E= -1090.78517550722     Delta-E=        0.000000000004 Rises=F Damp=F
 DIIS: error= 2.67D-09 at cycle  16 NSaved=  16.
 NSaved=16 IEnMin=13 EnMin= -1090.78517550725     IErMin=16 ErrMin= 2.67D-09
 ErrMax= 2.67D-09 EMaxC= 1.00D-01 BMatC= 3.02D-15 BMatP= 6.17D-14
 IDIUse=1 WtCom= 1.00D+00 WtEn= 0.00D+00
 Coeff-Com: -0.360D-07 0.738D-07 0.227D-06-0.948D-07 0.117D-05-0.442D-06
 Coeff-Com: -0.780D-05-0.277D-04-0.257D-03-0.628D-03-0.233D-02-0.151D-02
 Coeff-Com:  0.220D-01 0.993D-01 0.247D+00 0.636D+00
 Coeff:     -0.360D-07 0.738D-07 0.227D-06-0.948D-07 0.117D-05-0.442D-06
 Coeff:     -0.780D-05-0.277D-04-0.257D-03-0.628D-03-0.233D-02-0.151D-02
 Coeff:      0.220D-01 0.993D-01 0.247D+00 0.636D+00
 Gap=     0.190 Goal=   None    Shift=    0.000
 RMSDP=1.61D-09 MaxDP=1.94D-07 DE= 3.64D-12 OVMax= 1.26D-08

 SCF Done:  E(RB3LYP) =  -1090.78517551     A.U. after   16 cycles
             Convg  =    0.1609D-08             -V/T =  2.0028
 KE= 1.087720751701D+03 PE=-4.618413007671D+03 EE= 1.412438106127D+03
 Leave Link  502 at Sat Jul 06 10:42:37 2019, MaxMem=  209715200 cpu:     397.0
 (Enter C:\G09W\l601.exe)
 Copying SCF densities to generalized density rwf, IOpCl= 0 IROHF=0.

 **********************************************************************

            Population analysis using the SCF density.

 **********************************************************************

 Orbital symmetries:
       Occupied  (A) (A) (A) (A) (A) (A) (A) (A) (A) (A) (A) (A)
                 (A) (A) (A) (A) (A) (A) (A) (A) (A) (A) (A) (A)
                 (A) (A) (A) (A) (A) (A) (A) (A) (A) (A) (A) (A)
                 (A) (A) (A) (A) (A) (A) (A) (A) (A) (A) (A) (A)
                 (A) (A) (A) (A) (A) (A) (A) (A) (A) (A)
       Virtual   (A) (A) (A) (A) (A) (A) (A) (A) (A) (A) (A) (A)
                 (A) (A) (A) (A) (A) (A) (A) (A) (A) (A) (A) (A)
                 (A) (A) (A) (A) (A) (A) (A) (A) (A) (A) (A) (A)
                 (A) (A) (A) (A) (A) (A) (A) (A) (A) (A) (A) (A)
                 (A) (A) (A) (A) (A) (A) (A) (A) (A) (A) (A) (A)
                 (A) (A) (A) (A) (A) (A) (A) (A) (A) (A) (A) (A)
                 (A) (A) (A) (A) (A) (A) (A) (A) (A) (A) (A) (A)
                 (A) (A) (A) (A) (A) (A) (A) (A) (A) (A) (A) (A)
                 (A) (A) (A) (A) (A) (A) (A) (A) (A) (A) (A) (A)
                 (A) (A) (A) (A) (A) (A) (A) (A) (A) (A) (A) (A)
                 (A) (A) (A) (A) (A) (A) (A) (A) (A) (A) (A) (A)
                 (A) (A) (A) (A) (A) (A) (A) (A) (A) (A) (A) (A)
                 (A) (A) (A) (A) (A) (A) (A) (A) (A) (A) (A) (A)
                 (A) (A) (A) (A) (A) (A) (A) (A) (A) (A) (A) (A)
                 (A) (A) (A) (A) (A) (A) (A) (A) (A) (A) (A) (A)
                 (A) (A) (A) (A) (A) (A) (A) (A) (A) (A) (A) (A)
                 (A) (A) (A) (A) (A) (A) (A) (A) (A) (A) (A) (A)
                 (A) (A) (A) (A) (A) (A) (A) (A) (A) (A) (A) (A)
                 (A) (A) (A) (A) (A) (A) (A) (A) (A) (A) (A) (A)
                 (A) (A) (A) (A) (A) (A) (A) (A) (A) (A) (A) (A)
                 (A) (A) (A) (A) (A) (A) (A) (A) (A) (A) (A) (A)
                 (A) (A) (A) (A) (A) (A) (A) (A) (A) (A) (A) (A)
                 (A) (A) (A) (A) (A) (A) (A) (A) (A) (A) (A) (A)
                 (A) (A) (A) (A) (A) (A) (A) (A) (A) (A) (A) (A)
                 (A) (A) (A) (A) (A) (A) (A) (A) (A) (A) (A) (A)
                 (A) (A) (A) (A) (A) (A) (A) (A) (A) (A) (A) (A)
                 (A) (A) (A) (A) (A) (A) (A) (A) (A) (A) (A) (A)
                 (A) (A) (A) (A) (A) (A) (A) (A) (A) (A) (A) (A)
                 (A) (A) (A) (A) (A) (A) (A) (A) (A) (A) (A) (A)
                 (A)
 The electronic state is 1-A.
 Alpha  occ. eigenvalues -- -101.56416 -19.16727 -19.09745 -14.36977 -10.29338
 Alpha  occ. eigenvalues --  -10.25604 -10.25244 -10.23998 -10.22364 -10.21112
 Alpha  occ. eigenvalues --  -10.20281 -10.20280 -10.19875 -10.19874 -10.18737
 Alpha  occ. eigenvalues --   -9.47849  -7.24321  -7.23312  -7.23310  -1.12380
 Alpha  occ. eigenvalues --   -1.03810  -0.99179  -0.89745  -0.88062  -0.81300
 Alpha  occ. eigenvalues --   -0.78410  -0.78261  -0.74384  -0.71571  -0.64678
 Alpha  occ. eigenvalues --   -0.63867  -0.61892  -0.59313  -0.55058  -0.54043
 Alpha  occ. eigenvalues --   -0.52370  -0.51224  -0.50537  -0.49246  -0.46303
 Alpha  occ. eigenvalues --   -0.45532  -0.44845  -0.43824  -0.42332  -0.42011
 Alpha  occ. eigenvalues --   -0.41931  -0.39386  -0.39249  -0.38710  -0.38115
 Alpha  occ. eigenvalues --   -0.37441  -0.33886  -0.32697  -0.30530  -0.28805
 Alpha  occ. eigenvalues --   -0.28006  -0.27747  -0.23460
 Alpha virt. eigenvalues --   -0.04478  -0.04465  -0.02451  -0.02272  -0.01026
 Alpha virt. eigenvalues --   -0.00430   0.00008   0.01150   0.01898   0.02077
 Alpha virt. eigenvalues --    0.02239   0.03192   0.03918   0.04353   0.05125
 Alpha virt. eigenvalues --    0.05193   0.05802   0.06981   0.07254   0.07298
 Alpha virt. eigenvalues --    0.08092   0.08446   0.08621   0.08995   0.09484
 Alpha virt. eigenvalues --    0.09962   0.10264   0.10480   0.10484   0.10863
 Alpha virt. eigenvalues --    0.11031   0.11155   0.11633   0.12205   0.12271
 Alpha virt. eigenvalues --    0.13068   0.13303   0.13530   0.14006   0.14038
 Alpha virt. eigenvalues --    0.14501   0.14637   0.15305   0.15436   0.16185
 Alpha virt. eigenvalues --    0.16307   0.16531   0.16671   0.17351   0.17433
 Alpha virt. eigenvalues --    0.18608   0.18841   0.19313   0.19590   0.19689
 Alpha virt. eigenvalues --    0.20308   0.21544   0.21811   0.21929   0.22484
 Alpha virt. eigenvalues --    0.23114   0.23208   0.23948   0.24693   0.24896
 Alpha virt. eigenvalues --    0.25419   0.25606   0.26347   0.26396   0.26811
 Alpha virt. eigenvalues --    0.27475   0.27631   0.28768   0.29172   0.29885
 Alpha virt. eigenvalues --    0.30124   0.30458   0.30566   0.30918   0.31618
 Alpha virt. eigenvalues --    0.31856   0.32147   0.32990   0.33180   0.34320
 Alpha virt. eigenvalues --    0.34960   0.35109   0.36026   0.36208   0.36651
 Alpha virt. eigenvalues --    0.37070   0.40094   0.40628   0.41801   0.42615
 Alpha virt. eigenvalues --    0.43860   0.44446   0.46222   0.46965   0.47514
 Alpha virt. eigenvalues --    0.48306   0.48961   0.49848   0.51344   0.52853
 Alpha virt. eigenvalues --    0.53115   0.54928   0.55188   0.55701   0.57238
 Alpha virt. eigenvalues --    0.57424   0.57723   0.57890   0.59516   0.60352
 Alpha virt. eigenvalues --    0.60977   0.61990   0.62075   0.62765   0.64192
 Alpha virt. eigenvalues --    0.64662   0.65871   0.65920   0.66805   0.67665
 Alpha virt. eigenvalues --    0.69064   0.69294   0.69422   0.70245   0.72196
 Alpha virt. eigenvalues --    0.72757   0.74472   0.74644   0.75761   0.76191
 Alpha virt. eigenvalues --    0.77126   0.79378   0.81760   0.81941   0.82100
 Alpha virt. eigenvalues --    0.83839   0.85418   0.85899   0.86497   0.86512
 Alpha virt. eigenvalues --    0.87359   0.87583   0.88843   0.89372   0.91371
 Alpha virt. eigenvalues --    0.91776   0.93050   0.94439   0.96046   0.96284
 Alpha virt. eigenvalues --    0.96833   0.97827   0.98848   0.99009   1.00933
 Alpha virt. eigenvalues --    1.01050   1.03795   1.05712   1.05887   1.07162
 Alpha virt. eigenvalues --    1.08287   1.10278   1.12950   1.12989   1.14926
 Alpha virt. eigenvalues --    1.18444   1.20088   1.21919   1.22535   1.24071
 Alpha virt. eigenvalues --    1.25374   1.26147   1.27306   1.29635   1.32405
 Alpha virt. eigenvalues --    1.34029   1.34572   1.35821   1.38992   1.39371
 Alpha virt. eigenvalues --    1.41625   1.43068   1.44533   1.45792   1.47164
 Alpha virt. eigenvalues --    1.50693   1.52189   1.53211   1.54477   1.54941
 Alpha virt. eigenvalues --    1.56040   1.57156   1.58805   1.59740   1.60812
 Alpha virt. eigenvalues --    1.62145   1.63622   1.64999   1.65143   1.67413
 Alpha virt. eigenvalues --    1.70356   1.72054   1.72128   1.72835   1.75377
 Alpha virt. eigenvalues --    1.75506   1.78101   1.78639   1.81008   1.81423
 Alpha virt. eigenvalues --    1.83008   1.83227   1.87198   1.88414   1.89751
 Alpha virt. eigenvalues --    1.89825   1.90678   1.92566   1.93722   1.96527
 Alpha virt. eigenvalues --    1.97966   1.98555   2.01629   2.04180   2.04276
 Alpha virt. eigenvalues --    2.05676   2.07053   2.08055   2.09143   2.11296
 Alpha virt. eigenvalues --    2.15759   2.16000   2.17986   2.20008   2.21461
 Alpha virt. eigenvalues --    2.23619   2.27072   2.27191   2.30022   2.34949
 Alpha virt. eigenvalues --    2.38494   2.41151   2.42059   2.44241   2.44736
 Alpha virt. eigenvalues --    2.45928   2.46343   2.52388   2.53454   2.55153
 Alpha virt. eigenvalues --    2.55292   2.56231   2.58531   2.58812   2.59856
 Alpha virt. eigenvalues --    2.63149   2.63549   2.64251   2.65160   2.69507
 Alpha virt. eigenvalues --    2.69858   2.70359   2.75523   2.75636   2.75877
 Alpha virt. eigenvalues --    2.77295   2.79146   2.80930   2.82746   2.84371
 Alpha virt. eigenvalues --    2.88020   2.89718   2.90676   2.92497   2.92555
 Alpha virt. eigenvalues --    2.93439   2.95702   2.95915   2.98100   2.99559
 Alpha virt. eigenvalues --    3.01551   3.04174   3.07171   3.11860   3.14904
 Alpha virt. eigenvalues --    3.15884   3.16013   3.19473   3.19680   3.21724
 Alpha virt. eigenvalues --    3.24656   3.27167   3.33803   3.41150   3.42718
 Alpha virt. eigenvalues --    3.48121   3.48790   3.48812   3.61649   3.62592
 Alpha virt. eigenvalues --    3.66705   3.70993   3.78085   3.79884   3.80771
 Alpha virt. eigenvalues --    3.82416   3.93708   3.98240   4.00628   4.02238
 Alpha virt. eigenvalues --    4.06135   4.12905   4.13427   4.16883   4.31697
 Alpha virt. eigenvalues --    4.34236   4.83805   4.85071   5.02853   5.07528
 Alpha virt. eigenvalues --    5.10746   5.19209   5.44658   5.70192   5.91494
 Alpha virt. eigenvalues --    9.81574  23.59622  23.62956  23.86560  23.92421
 Alpha virt. eigenvalues --   23.94192  23.96873  23.98093  24.07856  24.11067
 Alpha virt. eigenvalues --   24.19799  24.20318  25.84882  26.14019  26.69592
 Alpha virt. eigenvalues --   35.66208  49.91620  50.09243 215.81336
          Condensed to atoms (all electrons):
              1          2          3          4          5          6
     1  C   11.469534  -0.843987  -4.839092   1.167389  -0.872756  -0.361122
     2  C   -0.843987  13.158638  -0.843829  -1.225644  -0.457737  -1.225512
     3  C   -4.839092  -0.843829  11.468601  -0.357669  -0.873367   1.168011
     4  C    1.167389  -1.225644  -0.357669   8.305042  -0.000807  -1.904383
     5  C   -0.872756  -0.457737  -0.873367  -0.000807   8.846335  -0.001259
     6  C   -0.361122  -1.225512   1.168011  -1.904383  -0.001259   8.307564
     7  C    0.010376   0.053606   0.010858  -0.310097  -0.812173  -0.309606
     8  N   -0.173499  -0.303796  -0.172733   0.062221   0.034839   0.062280
     9  C    0.012006  -0.183552   0.011095   0.122546  -0.353740   0.122752
    10  C    0.032045  -1.233280   0.029371   0.080656   0.200378   0.080572
    11  C   -0.097503  -0.130231  -0.097406  -0.004815   0.063280  -0.004765
    12  C   -0.007290   0.401320  -0.006089  -0.023652  -0.012829  -0.023761
    13  O   -0.015036   0.064009  -0.015007  -0.003052  -0.008355  -0.003040
    14  Cl   0.039141  -0.449907   0.038293   0.019859   0.005157   0.019931
    15  O    0.001357  -0.005706   0.001356   0.000210   0.000240   0.000210
    16  H    0.480424  -0.059737  -0.042482   0.022270   0.005151  -0.071897
    17  H   -0.042347  -0.059561   0.480181  -0.071950   0.005094   0.022238
    18  H    0.027135   0.014172  -0.029751   0.345851  -0.058234   0.020315
    19  H   -0.029790   0.014250   0.027176   0.020300  -0.058226   0.345798
    20  H   -0.001761   0.001693  -0.001771  -0.018888   0.064735  -0.019033
    21  H    0.021884   0.005243  -0.016431  -0.114014  -0.106974   0.151481
    22  H   -0.016434   0.005236   0.021885   0.151365  -0.106916  -0.113930
    23  H   -0.000445  -0.321280  -0.000442   0.028088   0.010875   0.028119
    24  H    0.112303  -0.007570  -0.111347   0.003311   0.024719  -0.005382
    25  H   -0.111285  -0.008003   0.112385  -0.005325   0.024802   0.003356
              7          8          9         10         11         12
     1  C    0.010376  -0.173499   0.012006   0.032045  -0.097503  -0.007290
     2  C    0.053606  -0.303796  -0.183552  -1.233280  -0.130231   0.401320
     3  C    0.010858  -0.172733   0.011095   0.029371  -0.097406  -0.006089
     4  C   -0.310097   0.062221   0.122546   0.080656  -0.004815  -0.023652
     5  C   -0.812173   0.034839  -0.353740   0.200378   0.063280  -0.012829
     6  C   -0.309606   0.062280   0.122752   0.080572  -0.004765  -0.023761
     7  C    6.854346  -0.012611  -0.090531   0.019174   0.012700  -0.000804
     8  N   -0.012611   7.344058  -0.023060  -0.039998  -0.467378   0.254284
     9  C   -0.090531  -0.023060  19.665293 -11.820184  -3.736325   4.093331
    10  C    0.019174  -0.039998 -11.820184  19.357224   3.663951  -5.001764
    11  C    0.012700  -0.467378  -3.736325   3.663951   7.751844  -2.365200
    12  C   -0.000804   0.254284   4.093331  -5.001764  -2.365200   9.699422
    13  O   -0.000711  -0.021201   0.609323  -0.738869   0.264072   0.044282
    14  Cl  -0.000012  -0.054513  -1.113806   0.884253   0.440291  -1.130723
    15  O    0.000008   0.000417  -0.260406   0.128313   0.066093   0.342732
    16  H    0.004286  -0.017192  -0.025506   0.001983   0.014481  -0.005443
    17  H    0.004265  -0.017135  -0.025478   0.002015   0.014443  -0.005437
    18  H   -0.003487  -0.007501   0.008968  -0.009719  -0.004168   0.001473
    19  H   -0.003526  -0.007492   0.008982  -0.009713  -0.004182   0.001474
    20  H    0.335160   0.000132  -0.001282  -0.000639  -0.000276   0.000098
    21  H    0.413106  -0.000208   0.000117   0.000686   0.000520  -0.000100
    22  H    0.413077  -0.000207   0.000114   0.000687   0.000522  -0.000100
    23  H   -0.004041   0.421166   0.076643  -0.022305   0.004396  -0.067512
    24  H    0.002500   0.007978  -0.028145  -0.021141   0.347296  -0.004458
    25  H    0.002513   0.008011  -0.028002  -0.021142   0.347100  -0.004315
             13         14         15         16         17         18
     1  C   -0.015036   0.039141   0.001357   0.480424  -0.042347   0.027135
     2  C    0.064009  -0.449907  -0.005706  -0.059737  -0.059561   0.014172
     3  C   -0.015007   0.038293   0.001356  -0.042482   0.480181  -0.029751
     4  C   -0.003052   0.019859   0.000210   0.022270  -0.071950   0.345851
     5  C   -0.008355   0.005157   0.000240   0.005151   0.005094  -0.058234
     6  C   -0.003040   0.019931   0.000210  -0.071897   0.022238   0.020315
     7  C   -0.000711  -0.000012   0.000008   0.004286   0.004265  -0.003487
     8  N   -0.021201  -0.054513   0.000417  -0.017192  -0.017135  -0.007501
     9  C    0.609323  -1.113806  -0.260406  -0.025506  -0.025478   0.008968
    10  C   -0.738869   0.884253   0.128313   0.001983   0.002015  -0.009719
    11  C    0.264072   0.440291   0.066093   0.014481   0.014443  -0.004168
    12  C    0.044282  -1.130723   0.342732  -0.005443  -0.005437   0.001473
    13  O    8.165482  -0.005266  -0.085547   0.001088   0.001091   0.000188
    14  Cl  -0.005266  17.786651   0.053283   0.004810   0.004807  -0.000981
    15  O   -0.085547   0.053283   8.082567   0.000068   0.000068  -0.000013
    16  H    0.001088   0.004810   0.000068   0.540683  -0.005590   0.003225
    17  H    0.001091   0.004807   0.000068  -0.005590   0.540660  -0.024277
    18  H    0.000188  -0.000981  -0.000013   0.003225  -0.024277   0.546139
    19  H    0.000187  -0.000982  -0.000013  -0.024282   0.003224  -0.003329
    20  H   -0.000007  -0.000019   0.000000  -0.000058  -0.000056   0.001890
    21  H   -0.000004   0.000033   0.000000   0.000946  -0.000249   0.001041
    22  H   -0.000004   0.000033   0.000000  -0.000248   0.000944  -0.002213
    23  H   -0.005917   0.127997  -0.000129   0.000598   0.000606  -0.001465
    24  H   -0.063344   0.007189   0.002057  -0.000064  -0.000877   0.000355
    25  H   -0.063384   0.007184   0.002067  -0.000885  -0.000082  -0.002328
             19         20         21         22         23         24
     1  C   -0.029790  -0.001761   0.021884  -0.016434  -0.000445   0.112303
     2  C    0.014250   0.001693   0.005243   0.005236  -0.321280  -0.007570
     3  C    0.027176  -0.001771  -0.016431   0.021885  -0.000442  -0.111347
     4  C    0.020300  -0.018888  -0.114014   0.151365   0.028088   0.003311
     5  C   -0.058226   0.064735  -0.106974  -0.106916   0.010875   0.024719
     6  C    0.345798  -0.019033   0.151481  -0.113930   0.028119  -0.005382
     7  C   -0.003526   0.335160   0.413106   0.413077  -0.004041   0.002500
     8  N   -0.007492   0.000132  -0.000208  -0.000207   0.421166   0.007978
     9  C    0.008982  -0.001282   0.000117   0.000114   0.076643  -0.028145
    10  C   -0.009713  -0.000639   0.000686   0.000687  -0.022305  -0.021141
    11  C   -0.004182  -0.000276   0.000520   0.000522   0.004396   0.347296
    12  C    0.001474   0.000098  -0.000100  -0.000100  -0.067512  -0.004458
    13  O    0.000187  -0.000007  -0.000004  -0.000004  -0.005917  -0.063344
    14  Cl  -0.000982  -0.000019   0.000033   0.000033   0.127997   0.007189
    15  O   -0.000013   0.000000   0.000000   0.000000  -0.000129   0.002057
    16  H   -0.024282  -0.000058   0.000946  -0.000248   0.000598  -0.000064
    17  H    0.003224  -0.000056  -0.000249   0.000944   0.000606  -0.000877
    18  H   -0.003329   0.001890   0.001041  -0.002213  -0.001465   0.000355
    19  H    0.546129   0.001897  -0.002219   0.001040  -0.001462  -0.002326
    20  H    0.001897   0.534294  -0.036662  -0.036647   0.000010  -0.000108
    21  H   -0.002219  -0.036662   0.559201  -0.022515   0.000053  -0.000105
    22  H    0.001040  -0.036647  -0.022515   0.559188   0.000053   0.000222
    23  H   -0.001462   0.000010   0.000053   0.000053   0.425693  -0.000139
    24  H   -0.002326  -0.000108  -0.000105   0.000222  -0.000139   0.632811
    25  H    0.000355  -0.000107   0.000221  -0.000105  -0.000117  -0.102200
             25
     1  C   -0.111285
     2  C   -0.008003
     3  C    0.112385
     4  C   -0.005325
     5  C    0.024802
     6  C    0.003356
     7  C    0.002513
     8  N    0.008011
     9  C   -0.028002
    10  C   -0.021142
    11  C    0.347100
    12  C   -0.004315
    13  O   -0.063384
    14  Cl   0.007184
    15  O    0.002067
    16  H   -0.000885
    17  H   -0.000082
    18  H   -0.002328
    19  H    0.000355
    20  H   -0.000107
    21  H    0.000221
    22  H   -0.000105
    23  H   -0.000117
    24  H   -0.102200
    25  H    0.632835
 Mulliken atomic charges:
              1
     1  C    0.038753
     2  C   -0.358836
     3  C    0.038202
     4  C   -0.288810
     5  C    0.437768
     6  C   -0.288939
     7  C   -0.588376
     8  N    0.123139
     9  C   -1.041152
    10  C    0.437446
    11  C   -0.078740
    12  C   -0.178939
    13  O   -0.120979
    14  Cl   0.317298
    15  O   -0.329232
    16  H    0.173370
    17  H    0.173403
    18  H    0.176715
    19  H    0.176730
    20  H    0.177406
    21  H    0.144950
    22  H    0.144953
    23  H    0.300960
    24  H    0.206463
    25  H    0.206449
 Sum of Mulliken atomic charges =   0.00000
 Mulliken charges with hydrogens summed into heavy atoms:
              1
     1  C    0.212123
     2  C   -0.358836
     3  C    0.211605
     4  C   -0.112095
     5  C    0.437768
     6  C   -0.112209
     7  C   -0.121068
     8  N    0.424099
     9  C   -1.041152
    10  C    0.437446
    11  C    0.334173
    12  C   -0.178939
    13  O   -0.120979
    14  Cl   0.317298
    15  O   -0.329232
 Sum of Mulliken charges with hydrogens summed into heavy atoms =   0.00000
 Electronic spatial extent (au):  <R**2>=           4745.1185
 Charge=              0.0000 electrons
 Dipole moment (field-independent basis, Debye):
    X=             -8.8620    Y=             -1.7384    Z=              0.0006  Tot=              9.0309
 Quadrupole moment (field-independent basis, Debye-Ang):
   XX=           -112.7114   YY=            -98.3913   ZZ=            -88.5431
   XY=            -10.6428   XZ=              0.0061   YZ=              0.0084
 Traceless Quadrupole moment (field-independent basis, Debye-Ang):
   XX=            -12.8295   YY=              1.4906   ZZ=             11.3389
   XY=            -10.6428   XZ=              0.0061   YZ=              0.0084
 Octapole moment (field-independent basis, Debye-Ang**2):
  XXX=           -171.5876  YYY=            -14.3162  ZZZ=             -0.0011  XYY=             -3.4366
  XXY=            -28.8390  XXZ=              0.0084  XZZ=             -1.9323  YZZ=              2.7779
  YYZ=              0.0023  XYZ=             -0.0086
 Hexadecapole moment (field-independent basis, Debye-Ang**3):
 XXXX=          -5520.1458 YYYY=           -745.8941 ZZZZ=           -337.7529 XXXY=           -218.6739
 XXXZ=              0.1317 YYYX=            -63.7787 YYYZ=             -0.0154 ZZZX=             -0.0150
 ZZZY=              0.0351 XXYY=          -1089.6283 XXZZ=           -886.8404 YYZZ=           -189.4583
 XXYZ=              0.0896 YYXZ=              0.0376 ZZXY=              9.2930
 N-N= 1.027468974335D+03 E-N=-4.618413008246D+03  KE= 1.087720751701D+03
 No NMR shielding tensors so no spin-rotation constants.
 Leave Link  601 at Sat Jul 06 10:42:38 2019, MaxMem=  209715200 cpu:       1.0
 (Enter C:\G09W\l607.exe)
 ******************************Gaussian NBO Version 3.1******************************
             N A T U R A L   A T O M I C   O R B I T A L   A N D
          N A T U R A L   B O N D   O R B I T A L   A N A L Y S I S
 ******************************Gaussian NBO Version 3.1******************************
       /RESON  / : Allow strongly delocalized NBO set

 Analyzing the SCF density

 Job title: 8a.log                                                          

 Storage needed:    501700 in NPA,    667735 in NBO ( 209713297 available)


 NATURAL POPULATIONS:  Natural atomic orbital occupancies 
                                                          
   NAO  Atom  No  lang   Type(AO)    Occupancy      Energy
 ----------------------------------------------------------
     1    C    1  S      Cor( 1S)     1.99903     -10.05030
     2    C    1  S      Val( 2S)     0.94295      -0.17428
     3    C    1  S      Ryd( 4S)     0.00144       0.92148
     4    C    1  S      Ryd( 3S)     0.00011       0.62516
     5    C    1  S      Ryd( 5S)     0.00001      23.05807
     6    C    1  px     Val( 2p)     1.09268      -0.07668
     7    C    1  px     Ryd( 4p)     0.00414       1.00243
     8    C    1  px     Ryd( 3p)     0.00026       0.45242
     9    C    1  px     Ryd( 5p)     0.00013       3.00940
    10    C    1  py     Val( 2p)     0.99026      -0.13203
    11    C    1  py     Ryd( 4p)     0.00135       0.56929
    12    C    1  py     Ryd( 3p)     0.00040       0.36693
    13    C    1  py     Ryd( 5p)     0.00003       2.70722
    14    C    1  pz     Val( 2p)     1.14784      -0.07614
    15    C    1  pz     Ryd( 4p)     0.00559       1.07940
    16    C    1  pz     Ryd( 3p)     0.00018       0.46902
    17    C    1  pz     Ryd( 5p)     0.00009       3.03120
    18    C    1  dxy    Ryd( 3d)     0.00050       1.76774
    19    C    1  dxz    Ryd( 3d)     0.00077       2.49152
    20    C    1  dyz    Ryd( 3d)     0.00050       1.68815
    21    C    1  dx2y2  Ryd( 3d)     0.00045       2.12690
    22    C    1  dz2    Ryd( 3d)     0.00062       2.42795

    23    C    2  S      Cor( 1S)     1.99889     -10.09753
    24    C    2  S      Val( 2S)     0.83383      -0.14228
    25    C    2  S      Ryd( 3S)     0.00123       0.89840
    26    C    2  S      Ryd( 4S)     0.00008       1.13387
    27    C    2  S      Ryd( 5S)     0.00001      22.61201
    28    C    2  px     Val( 2p)     0.88251      -0.05464
    29    C    2  px     Ryd( 4p)     0.00642       1.31076
    30    C    2  px     Ryd( 3p)     0.00009       0.77481
    31    C    2  px     Ryd( 5p)     0.00010       2.96239
    32    C    2  py     Val( 2p)     1.05175      -0.13992
    33    C    2  py     Ryd( 4p)     0.00394       0.67084
    34    C    2  py     Ryd( 3p)     0.00014       0.62474
    35    C    2  py     Ryd( 5p)     0.00003       2.64424
    36    C    2  pz     Val( 2p)     1.09955      -0.08790
    37    C    2  pz     Ryd( 4p)     0.00327       1.04407
    38    C    2  pz     Ryd( 3p)     0.00025       0.64341
    39    C    2  pz     Ryd( 5p)     0.00021       2.91988
    40    C    2  dxy    Ryd( 3d)     0.00058       1.85050
    41    C    2  dxz    Ryd( 3d)     0.00147       2.56869
    42    C    2  dyz    Ryd( 3d)     0.00067       1.68633
    43    C    2  dx2y2  Ryd( 3d)     0.00077       2.11696
    44    C    2  dz2    Ryd( 3d)     0.00081       2.43556

    45    C    3  S      Cor( 1S)     1.99903     -10.05030
    46    C    3  S      Val( 2S)     0.94295      -0.17428
    47    C    3  S      Ryd( 4S)     0.00144       0.92155
    48    C    3  S      Ryd( 3S)     0.00011       0.62547
    49    C    3  S      Ryd( 5S)     0.00001      23.05787
    50    C    3  px     Val( 2p)     1.09269      -0.07668
    51    C    3  px     Ryd( 4p)     0.00414       1.00240
    52    C    3  px     Ryd( 3p)     0.00026       0.45243
    53    C    3  px     Ryd( 5p)     0.00013       3.00942
    54    C    3  py     Val( 2p)     0.99022      -0.13203
    55    C    3  py     Ryd( 4p)     0.00135       0.56914
    56    C    3  py     Ryd( 3p)     0.00040       0.36684
    57    C    3  py     Ryd( 5p)     0.00003       2.70725
    58    C    3  pz     Val( 2p)     1.14787      -0.07614
    59    C    3  pz     Ryd( 4p)     0.00559       1.07943
    60    C    3  pz     Ryd( 3p)     0.00018       0.46917
    61    C    3  pz     Ryd( 5p)     0.00009       3.03127
    62    C    3  dxy    Ryd( 3d)     0.00050       1.76776
    63    C    3  dxz    Ryd( 3d)     0.00077       2.49151
    64    C    3  dyz    Ryd( 3d)     0.00050       1.68820
    65    C    3  dx2y2  Ryd( 3d)     0.00045       2.12686
    66    C    3  dz2    Ryd( 3d)     0.00062       2.42793

    67    C    4  S      Cor( 1S)     1.99904     -10.04662
    68    C    4  S      Val( 2S)     0.93511      -0.16799
    69    C    4  S      Ryd( 4S)     0.00125       0.95503
    70    C    4  S      Ryd( 3S)     0.00012       0.82433
    71    C    4  S      Ryd( 5S)     0.00001      22.76694
    72    C    4  px     Val( 2p)     1.08504      -0.07271
    73    C    4  px     Ryd( 4p)     0.00441       0.90752
    74    C    4  px     Ryd( 3p)     0.00026       0.43502
    75    C    4  px     Ryd( 5p)     0.00013       3.09851
    76    C    4  py     Val( 2p)     1.00517      -0.12896
    77    C    4  py     Ryd( 4p)     0.00110       0.52949
    78    C    4  py     Ryd( 3p)     0.00034       0.29099
    79    C    4  py     Ryd( 5p)     0.00002       2.72729
    80    C    4  pz     Val( 2p)     1.15226      -0.07244
    81    C    4  pz     Ryd( 4p)     0.00589       1.03613
    82    C    4  pz     Ryd( 3p)     0.00020       0.44081
    83    C    4  pz     Ryd( 5p)     0.00007       3.09332
    84    C    4  dxy    Ryd( 3d)     0.00046       1.76805
    85    C    4  dxz    Ryd( 3d)     0.00074       2.47168
    86    C    4  dyz    Ryd( 3d)     0.00045       1.66742
    87    C    4  dx2y2  Ryd( 3d)     0.00047       2.12189
    88    C    4  dz2    Ryd( 3d)     0.00066       2.41260

    89    C    5  S      Cor( 1S)     1.99904     -10.06339
    90    C    5  S      Val( 2S)     0.88942      -0.15914
    91    C    5  S      Ryd( 4S)     0.00063       0.79118
    92    C    5  S      Ryd( 3S)     0.00011       0.59235
    93    C    5  S      Ryd( 5S)     0.00001      23.23040
    94    C    5  px     Val( 2p)     1.05521      -0.07892
    95    C    5  px     Ryd( 4p)     0.00583       1.25612
    96    C    5  px     Ryd( 3p)     0.00020       0.98972
    97    C    5  px     Ryd( 5p)     0.00007       2.78268
    98    C    5  py     Val( 2p)     0.97121      -0.12020
    99    C    5  py     Ryd( 3p)     0.00147       0.61924
   100    C    5  py     Ryd( 4p)     0.00029       0.84666
   101    C    5  py     Ryd( 5p)     0.00002       2.23205
   102    C    5  pz     Val( 2p)     1.08292      -0.06941
   103    C    5  pz     Ryd( 4p)     0.00321       0.90554
   104    C    5  pz     Ryd( 3p)     0.00039       0.88863
   105    C    5  pz     Ryd( 5p)     0.00010       2.73768
   106    C    5  dxy    Ryd( 3d)     0.00064       1.76713
   107    C    5  dxz    Ryd( 3d)     0.00089       2.56404
   108    C    5  dyz    Ryd( 3d)     0.00050       1.70880
   109    C    5  dx2y2  Ryd( 3d)     0.00051       2.05509
   110    C    5  dz2    Ryd( 3d)     0.00057       2.40211

   111    C    6  S      Cor( 1S)     1.99904     -10.04662
   112    C    6  S      Val( 2S)     0.93511      -0.16799
   113    C    6  S      Ryd( 4S)     0.00125       0.95501
   114    C    6  S      Ryd( 3S)     0.00012       0.82456
   115    C    6  S      Ryd( 5S)     0.00001      22.76673
   116    C    6  px     Val( 2p)     1.08505      -0.07271
   117    C    6  px     Ryd( 4p)     0.00441       0.90759
   118    C    6  px     Ryd( 3p)     0.00026       0.43502
   119    C    6  px     Ryd( 5p)     0.00013       3.09853
   120    C    6  py     Val( 2p)     1.00513      -0.12896
   121    C    6  py     Ryd( 4p)     0.00110       0.52935
   122    C    6  py     Ryd( 3p)     0.00034       0.29096
   123    C    6  py     Ryd( 5p)     0.00002       2.72730
   124    C    6  pz     Val( 2p)     1.15228      -0.07244
   125    C    6  pz     Ryd( 4p)     0.00589       1.03618
   126    C    6  pz     Ryd( 3p)     0.00020       0.44085
   127    C    6  pz     Ryd( 5p)     0.00007       3.09331
   128    C    6  dxy    Ryd( 3d)     0.00046       1.76805
   129    C    6  dxz    Ryd( 3d)     0.00074       2.47160
   130    C    6  dyz    Ryd( 3d)     0.00045       1.66751
   131    C    6  dx2y2  Ryd( 3d)     0.00047       2.12194
   132    C    6  dz2    Ryd( 3d)     0.00066       2.41252

   133    C    7  S      Cor( 1S)     1.99927     -10.04124
   134    C    7  S      Val( 2S)     1.07208      -0.25413
   135    C    7  S      Ryd( 4S)     0.00054       0.82107
   136    C    7  S      Ryd( 3S)     0.00007       0.79966
   137    C    7  S      Ryd( 5S)     0.00000      23.13985
   138    C    7  px     Val( 2p)     1.07946      -0.10318
   139    C    7  px     Ryd( 4p)     0.00114       0.47528
   140    C    7  px     Ryd( 3p)     0.00016       0.42884
   141    C    7  px     Ryd( 5p)     0.00007       2.92656
   142    C    7  py     Val( 2p)     1.20616      -0.11347
   143    C    7  py     Ryd( 4p)     0.00052       0.48548
   144    C    7  py     Ryd( 3p)     0.00003       0.40497
   145    C    7  py     Ryd( 5p)     0.00005       2.93170
   146    C    7  pz     Val( 2p)     1.22169      -0.11351
   147    C    7  pz     Ryd( 4p)     0.00372       0.50854
   148    C    7  pz     Ryd( 3p)     0.00009       0.42901
   149    C    7  pz     Ryd( 5p)     0.00002       2.95476
   150    C    7  dxy    Ryd( 3d)     0.00044       1.88924
   151    C    7  dxz    Ryd( 3d)     0.00071       2.17864
   152    C    7  dyz    Ryd( 3d)     0.00039       1.94730
   153    C    7  dx2y2  Ryd( 3d)     0.00092       2.22560
   154    C    7  dz2    Ryd( 3d)     0.00072       2.12426

   155    N    8  S      Cor( 1S)     1.99924     -14.19002
   156    N    8  S      Val( 2S)     1.19980      -0.53467
[...]
   146. RY*(   3) C   6                  0.00076     0.50637   
   147. RY*(   4) C   6                  0.00059     1.56128   
   148. RY*(   5) C   6                  0.00043     1.13313   
   149. RY*(   6) C   6                  0.00016     1.66086   
   150. RY*(   7) C   6                  0.00011     2.71137   
   151. RY*(   8) C   6                  0.00011     2.86378   
   152. RY*(   9) C   6                  0.00007     1.32574   
   153. RY*(  10) C   6                  0.00004     1.20392   
   154. RY*(  11) C   6                  0.00004     1.92190   
   155. RY*(  12) C   6                  0.00002     2.28895   
   156. RY*(  13) C   6                  0.00002     0.79880   
   157. RY*(  14) C   6                  0.00000     2.87906   
   158. RY*(  15) C   6                  0.00000     1.35516   
   159. RY*(  16) C   6                  0.00000     2.71670   
   160. RY*(  17) C   6                  0.00000    20.28318   
   161. RY*(   1) C   7                  0.00369     0.58111   
   162. RY*(   2) C   7                  0.00086     0.95964   
   163. RY*(   3) C   7                  0.00037     0.57767   
   164. RY*(   4) C   7                  0.00018     2.41048   
   165. RY*(   5) C   7                  0.00009     0.47363   
   166. RY*(   6) C   7                  0.00008     1.38731   
   167. RY*(   7) C   7                  0.00002     1.35840   
   168. RY*(   8) C   7                  0.00001     1.30437   
   169. RY*(   9) C   7                  0.00000     2.88378   
   170. RY*(  10) C   7                  0.00000    22.69915   
   171. RY*(  11) C   7                  0.00000     1.87440   
   172. RY*(  12) C   7                  0.00000     3.06189   
   173. RY*(  13) C   7                  0.00000     1.07305   
   174. RY*(  14) C   7                  0.00000     1.93594   
   175. RY*(  15) C   7                  0.00000     1.92827   
   176. RY*(  16) C   7                  0.00000     0.37460   
   177. RY*(  17) C   7                  0.00000     1.68691   
   178. RY*(   1) N   8                  0.00900     0.59395   
   179. RY*(   2) N   8                  0.00433     0.75897   
   180. RY*(   3) N   8                  0.00149     0.69306   
   181. RY*(   4) N   8                  0.00088     1.05327   
   182. RY*(   5) N   8                  0.00084     0.79666   
   183. RY*(   6) N   8                  0.00059     1.44574   
   184. RY*(   7) N   8                  0.00026     1.68175   
   185. RY*(   8) N   8                  0.00021     1.94746   
   186. RY*(   9) N   8                  0.00014     1.85430   
   187. RY*(  10) N   8                  0.00006     1.72503   
   188. RY*(  11) N   8                  0.00004     2.73375   
   189. RY*(  12) N   8                  0.00003     3.94530   
   190. RY*(  13) N   8                  0.00001     2.20482   
   191. RY*(  14) N   8                  0.00000     3.91721   
   192. RY*(  15) N   8                  0.00000     3.87503   
   193. RY*(  16) N   8                  0.00001     2.02248   
   194. RY*(  17) N   8                  0.00000    35.19223   
   195. RY*(   1) C   9                  0.00654     1.15533   
   196. RY*(   2) C   9                  0.00391     1.41321   
   197. RY*(   3) C   9                  0.00275     1.20569   
   198. RY*(   4) C   9                  0.00140     0.79823   
   199. RY*(   5) C   9                  0.00078     1.06702   
   200. RY*(   6) C   9                  0.00043     1.59666   
   201. RY*(   7) C   9                  0.00035     1.43477   
   202. RY*(   8) C   9                  0.00027     2.16722   
   203. RY*(   9) C   9                  0.00023     1.74060   
   204. RY*(  10) C   9                  0.00022     2.70993   
   205. RY*(  11) C   9                  0.00011     5.19136   
   206. RY*(  12) C   9                  0.00010     0.59702   
   207. RY*(  13) C   9                  0.00005     2.42778   
   208. RY*(  14) C   9                  0.00005     2.53802   
   209. RY*(  15) C   9                  0.00001    15.68628   
   210. RY*(  16) C   9                  0.00001     2.71785   
   211. RY*(  17) C   9                  0.00001     3.61933   
   212. RY*(   1) C  10                  0.00669     0.92817   
   213. RY*(   2) C  10                  0.00433     1.20147   
   214. RY*(   3) C  10                  0.00207     1.22760   
   215. RY*(   4) C  10                  0.00104     1.12489   
   216. RY*(   5) C  10                  0.00086     0.73152   
   217. RY*(   6) C  10                  0.00081     1.74789   
   218. RY*(   7) C  10                  0.00037     1.19298   
   219. RY*(   8) C  10                  0.00035     1.97714   
   220. RY*(   9) C  10                  0.00018     2.97685   
   221. RY*(  10) C  10                  0.00013     0.88573   
   222. RY*(  11) C  10                  0.00008     2.00225   
   223. RY*(  12) C  10                  0.00004     1.58053   
   224. RY*(  13) C  10                  0.00004     0.89035   
   225. RY*(  14) C  10                  0.00001     2.39817   
   226. RY*(  15) C  10                  0.00002     1.85735   
   227. RY*(  16) C  10                  0.00001    22.04256   
   228. RY*(  17) C  10                  0.00000     2.69629   
   229. RY*(   1) C  11                  0.00400     1.04547   
   230. RY*(   2) C  11                  0.00187     0.84584   
   231. RY*(   3) C  11                  0.00187     1.75723   
   232. RY*(   4) C  11                  0.00071     1.42044   
   233. RY*(   5) C  11                  0.00052     1.71508   
   234. RY*(   6) C  11                  0.00040     1.10095   
   235. RY*(   7) C  11                  0.00033     0.65298   
   236. RY*(   8) C  11                  0.00014     0.67260   
   237. RY*(   9) C  11                  0.00013     2.64498   
   238. RY*(  10) C  11                  0.00011     1.31214   
   239. RY*(  11) C  11                  0.00006     2.42680   
   240. RY*(  12) C  11                  0.00004     0.90218   
   241. RY*(  13) C  11                  0.00002     2.29100   
   242. RY*(  14) C  11                  0.00003     1.42851   
   243. RY*(  15) C  11                  0.00000    22.39825   
   244. RY*(  16) C  11                  0.00001     3.15259   
   245. RY*(  17) C  11                  0.00000     1.70693   
   246. RY*(   1) C  12                  0.01490     1.13876   
   247. RY*(   2) C  12                  0.01162     1.62011   
   248. RY*(   3) C  12                  0.00700     1.60828   
   249. RY*(   4) C  12                  0.00375     1.79670   
   250. RY*(   5) C  12                  0.00236     1.66357   
   251. RY*(   6) C  12                  0.00161     1.42704   
   252. RY*(   7) C  12                  0.00083     1.54444   
   253. RY*(   8) C  12                  0.00038     0.66672   
   254. RY*(   9) C  12                  0.00018     1.75771   
   255. RY*(  10) C  12                  0.00011     3.79694   
   256. RY*(  11) C  12                  0.00004     1.98458   
   257. RY*(  12) C  12                  0.00001     2.65103   
   258. RY*(  13) C  12                  0.00001     2.86272   
   259. RY*(  14) C  12                  0.00001     1.02308   
   260. RY*(  15) C  12                  0.00001    18.36279   
   261. RY*(  16) C  12                  0.00001     2.01101   
   262. RY*(  17) C  12                  0.00001     0.41836   
   263. RY*(   1) O  13                  0.00401     0.46327   
   264. RY*(   2) O  13                  0.00207     0.92922   
   265. RY*(   3) O  13                  0.00125     1.06474   
   266. RY*(   4) O  13                  0.00073     1.12573   
   267. RY*(   5) O  13                  0.00054     1.24691   
   268. RY*(   6) O  13                  0.00017     1.22773   
   269. RY*(   7) O  13                  0.00015     2.66333   
   270. RY*(   8) O  13                  0.00004     3.92409   
   271. RY*(   9) O  13                  0.00005     1.31758   
   272. RY*(  10) O  13                  0.00005     0.97125   
   273. RY*(  11) O  13                  0.00002     2.66313   
   274. RY*(  12) O  13                  0.00001     3.12801   
   275. RY*(  13) O  13                  0.00001     4.46586   
   276. RY*(  14) O  13                  0.00000    49.43147   
   277. RY*(  15) O  13                  0.00001     4.71751   
   278. RY*(  16) O  13                  0.00000     4.89011   
   279. RY*(  17) O  13                  0.00001     3.22369   
   280. RY*(   1)Cl  14                  0.00524     0.60915   
   281. RY*(   2)Cl  14                  0.00252     0.60465   
   282. RY*(   3)Cl  14                  0.00075     0.66614   
   283. RY*(   4)Cl  14                  0.00036     0.42880   
   284. RY*(   5)Cl  14                  0.00010     1.11252   
   285. RY*(   6)Cl  14                  0.00009     0.28745   
   286. RY*(   7)Cl  14                  0.00007     1.95555   
   287. RY*(   8)Cl  14                  0.00005     0.75118   
   288. RY*(   9)Cl  14                  0.00004     0.89282   
   289. RY*(  10)Cl  14                  0.00003     1.37768   
   290. RY*(  11)Cl  14                  0.00002     0.83916   
   291. RY*(  12)Cl  14                  0.00000    24.63619   
   292. RY*(  13)Cl  14                  0.00000     3.23757   
   293. RY*(  14)Cl  14                  0.00000    24.85888   
   294. RY*(  15)Cl  14                  0.00000     3.15009   
   295. RY*(  16)Cl  14                  0.00000    24.83488   
   296. RY*(  17)Cl  14                  0.00001     0.91459   
   297. RY*(  18)Cl  14                  0.00000    16.98227   
   298. RY*(  19)Cl  14                  0.00000   208.08685   
   299. RY*(  20)Cl  14                  0.00000     2.48395   
   300. RY*(  21)Cl  14                  0.00000     0.82956   
   301. RY*(   1) O  15                  0.00275     0.84685   
   302. RY*(   2) O  15                  0.00123     0.62842   
   303. RY*(   3) O  15                  0.00093     1.14768   
   304. RY*(   4) O  15                  0.00017     1.08085   
   305. RY*(   5) O  15                  0.00010     5.00124   
   306. RY*(   6) O  15                  0.00006     1.76696   
   307. RY*(   7) O  15                  0.00004     1.42220   
   308. RY*(   8) O  15                  0.00003     1.09182   
   309. RY*(   9) O  15                  0.00000     4.22056   
   310. RY*(  10) O  15                  0.00000     3.51025   
   311. RY*(  11) O  15                  0.00000    49.35940   
   312. RY*(  12) O  15                  0.00000     4.96829   
   313. RY*(  13) O  15                  0.00001     3.29458   
   314. RY*(  14) O  15                  0.00000     3.12157   
   315. RY*(  15) O  15                  0.00000     2.32738   
   316. RY*(  16) O  15                  0.00001     1.77183   
   317. RY*(  17) O  15                  0.00000     2.99970   
   318. RY*(   1) H  16                  0.00076     0.90530   
   319. RY*(   2) H  16                  0.00022     2.00450   
   320. RY*(   3) H  16                  0.00017     1.64159   
   321. RY*(   4) H  16                  0.00014     1.58996   
   322. RY*(   5) H  16                  0.00006     0.87760   
   323. RY*(   6) H  16                  0.00004     2.24878   
   324. RY*(   1) H  17                  0.00076     0.90512   
   325. RY*(   2) H  17                  0.00022     2.00507   
   326. RY*(   3) H  17                  0.00017     1.64063   
   327. RY*(   4) H  17                  0.00014     1.59115   
   328. RY*(   5) H  17                  0.00006     0.88104   
   329. RY*(   6) H  17                  0.00004     2.24472   
   330. RY*(   1) H  18                  0.00088     0.75541   
   331. RY*(   2) H  18                  0.00021     2.25658   
   332. RY*(   3) H  18                  0.00018     1.58256   
   333. RY*(   4) H  18                  0.00014     1.54987   
   334. RY*(   5) H  18                  0.00006     0.63537   
   335. RY*(   6) H  18                  0.00004     2.43699   
   336. RY*(   1) H  19                  0.00088     0.75535   
   337. RY*(   2) H  19                  0.00021     2.25655   
   338. RY*(   3) H  19                  0.00018     1.58254   
   339. RY*(   4) H  19                  0.00014     1.54967   
   340. RY*(   5) H  19                  0.00006     0.63556   
   341. RY*(   6) H  19                  0.00004     2.43708   
   342. RY*(   1) H  20                  0.00093     0.65224   
   343. RY*(   2) H  20                  0.00018     1.82249   
   344. RY*(   3) H  20                  0.00014     1.78035   
   345. RY*(   4) H  20                  0.00010     1.16199   
   346. RY*(   5) H  20                  0.00006     1.96558   
   347. RY*(   6) H  20                  0.00003     1.75783   
   348. RY*(   1) H  21                  0.00091     0.64050   
   349. RY*(   2) H  21                  0.00016     1.93286   
   350. RY*(   3) H  21                  0.00011     1.54785   
   351. RY*(   4) H  21                  0.00010     1.32922   
   352. RY*(   5) H  21                  0.00005     1.16681   
   353. RY*(   6) H  21                  0.00002     2.45140   
   354. RY*(   1) H  22                  0.00091     0.64053   
   355. RY*(   2) H  22                  0.00016     1.93295   
   356. RY*(   3) H  22                  0.00011     1.54715   
   357. RY*(   4) H  22                  0.00010     1.33023   
   358. RY*(   5) H  22                  0.00005     1.16616   
   359. RY*(   6) H  22                  0.00002     2.45163   
   360. RY*(   1) H  23                  0.00137     0.79560   
   361. RY*(   2) H  23                  0.00070     1.61749   
   362. RY*(   3) H  23                  0.00037     1.59263   
   363. RY*(   4) H  23                  0.00023     1.65758   
   364. RY*(   5) H  23                  0.00011     1.44948   
   365. RY*(   6) H  23                  0.00006     2.51059   
   366. RY*(   1) H  24                  0.00129     0.59244   
   367. RY*(   2) H  24                  0.00034     1.87310   
   368. RY*(   3) H  24                  0.00014     2.35650   
   369. RY*(   4) H  24                  0.00011     1.71767   
   370. RY*(   5) H  24                  0.00010     1.34607   
   371. RY*(   6) H  24                  0.00007     1.53709   
   372. RY*(   1) H  25                  0.00129     0.59251   
   373. RY*(   2) H  25                  0.00034     1.87322   
   374. RY*(   3) H  25                  0.00014     2.35647   
   375. RY*(   4) H  25                  0.00011     1.71645   
   376. RY*(   5) H  25                  0.00010     1.34616   
   377. RY*(   6) H  25                  0.00007     1.53835   
   378. BD*(   1) C   1 - C   2          0.02901     0.54737   
   379. BD*(   1) C   1 - C   6          0.01428     0.55620   
   380. BD*(   2) C   1 - C   6          0.32160     0.00523  383(v),388(v),146(g),399(r)
                                                    61(g),63(g),62(g)
   381. BD*(   1) C   1 - H  16          0.01259     0.41692   
   382. BD*(   1) C   2 - C   3          0.02902     0.54735   
   383. BD*(   2) C   2 - C   3          0.37258    -0.00039  380(v),388(v),95(g),397(v)
                                                    396(v),399(r),61(v)
   384. BD*(   1) C   2 - N   8          0.02996     0.36621   
   385. BD*(   1) C   3 - C   4          0.01428     0.55620   
   386. BD*(   1) C   3 - H  17          0.01259     0.41692   
   387. BD*(   1) C   4 - C   5          0.02393     0.55547   
   388. BD*(   2) C   4 - C   5          0.33414     0.01245  380(v),383(v),112(g),393(v)
                                                    146(v),395(v)
   389. BD*(   1) C   4 - H  18          0.01415     0.41776   
   390. BD*(   1) C   5 - C   6          0.02393     0.55547   
   391. BD*(   1) C   5 - C   7          0.01572     0.39839   
   392. BD*(   1) C   6 - H  19          0.01415     0.41776   
   393. BD*(   1) C   7 - H  20          0.00971     0.38046   
   394. BD*(   1) C   7 - H  21          0.00520     0.38449   
   395. BD*(   1) C   7 - H  22          0.00520     0.38449   
   396. BD*(   1) N   8 - C   9          0.02839     0.47075   
   397. BD*(   1) N   8 - H  23          0.02319     0.37162   
   398. BD*(   1) C   9 - C  10          0.02647     0.59696   
   399. BD*(   2) C   9 - C  10          0.31801     0.00242  408(v),405(v),404(v),214(g)
                                                    380(r),201(g),198(g),280(v)
                                                    178(v),383(r),196(g)
   400. BD*(   1) C   9 - C  11          0.02906     0.36424   
   401. BD*(   1) C  10 - C  12          0.08032     0.44190   
   402. BD*(   1) C  10 -Cl  14          0.02821     0.15084   
   403. BD*(   1) C  11 - O  13          0.01379     0.26368   
   404. BD*(   1) C  11 - H  24          0.02259     0.36408   
   405. BD*(   1) C  11 - H  25          0.02260     0.36409   
   406. BD*(   1) C  12 - O  13          0.12131     0.31489  403(g),400(v),247(g),402(v)
                                                    398(v),252(g),255(g)
   407. BD*(   1) C  12 - O  15          0.01267     0.64529   
   408. BD*(   2) C  12 - O  15          0.29104     0.01995  399(v),248(g),302(g),253(g)
                                                    314(g)
       -------------------------------
              Total Lewis  113.47740  ( 97.8253%)
        Valence non-Lewis    2.29968  (  1.9825%)
        Rydberg non-Lewis    0.22292  (  0.1922%)
       -------------------------------
            Total unit  1  116.00000  (100.0000%)
           Charge unit  1    0.00000
 Leave Link  607 at Sat Jul 06 11:14:15 2019, MaxMem=  209715200 cpu:       3.0
 (Enter C:\G09W\l9999.exe)
 1|1|UNPC-CCSC-2005544|FOpt|RB3LYP|6-311++G(d,p)|C11H10Cl1N1O2|EDUARDO.
 MELO|06-Jul-2019|0||#p opt b3lyp/6-311++g(d,p) pop=nbo geom=connectivi
 ty||8a.log||0,1|C,-1.9556417677,-0.4111763024,-1.2050554002|C,-1.26999
 00022,-0.5665098617,0.0001312444|C,-1.9552102481,-0.4084028879,1.20520
 13225|C,-3.3114422136,-0.0928782757,1.1999737688|C,-4.0118093208,0.073
 1667205,-0.000115633|C,-3.3118825859,-0.0956991762,-1.2000713788|C,-5.
 474058228,0.4454562745,-0.0002922126|N,0.1234851843,-0.9094865756,0.00
 02565412|C,1.1360451339,-0.0120940147,0.0001630243|C,2.4709816341,-0.2
 298352541,-0.0000119097|C,0.9264670899,1.4805008777,0.000092551|C,3.19
 44126586,1.0377696486,-0.0000508671|O,2.237430462,2.0472170642,-0.0001
 101665|Cl,3.2505307713,-1.7753980409,-0.0002141339|O,4.368497287,1.275
 2226079,-0.0004736236|H,-1.4254817117,-0.5464792535,-2.1410320836|H,-1
 .4247386175,-0.5416469857,2.1412961818|H,-3.8331882193,0.0218864164,2.
 1443009704|H,-3.8339690486,0.0168746566,-2.1444748988|H,-5.5978810268,
 1.5337318831,-0.0018039333|H,-5.9844381566,0.0569731885,-0.8841421077|
 H,-5.9840214328,0.0594722721,0.8848906589|H,0.3792679914,-1.8876536652
 ,-0.0000151292|H,0.387444842,1.820622746,-0.8886605439|H,0.387663525,1
 .8207979375,0.8889057586||Version=IA32W-G09RevA.02|State=1-A|HF=-1090.
 7887347|RMSD=9.311e-009|RMSF=2.823e-005|Dipole=-3.5682922,-0.7395513,0
 .0002214|Quadrupole=-9.5991367,1.0117218,8.5874149,-8.2730737,0.004873
 ,0.0083933|PG=C01 [X(C11H10Cl1N1O2)]||@


 KINETICS       FACT
 ---------  =  -------
 MECHANISM     FICTION
 Job cpu time:  0 days  0 hours 38 minutes 22.0 seconds.
 File lengths (MBytes):  RWF=    105 Int=      0 D2E=      0 Chk=     10 Scr=      1
 Normal termination of Gaussian 09 at Sat Jul 06 11:14:15 2019.
