 Entering Link 1 = C:\G09W\l1.exe PID=      2428.
  
 Copyright (c) 1988,1990,1992,1993,1995,1998,2003,2009, Gaussian, Inc.
                  All Rights Reserved.
  
 This is part of the Gaussian(R) 09 program.  It is based on
 the Gaussian(R) 03 system (copyright 2003, Gaussian, Inc.),
 the Gaussian(R) 98 system (copyright 1998, Gaussian, Inc.),
 the Gaussian(R) 94 system (copyright 1995, Gaussian, Inc.),
 the Gaussian 92(TM) system (copyright 1992, Gaussian, Inc.),
 the Gaussian 90(TM) system (copyright 1990, Gaussian, Inc.),
 the Gaussian 88(TM) system (copyright 1988, Gaussian, Inc.),
 the Gaussian 86(TM) system (copyright 1986, Carnegie Mellon
 University), and the Gaussian 82(TM) system (copyright 1983,
 Carnegie Mellon University). Gaussian is a federally registered
 trademark of Gaussian, Inc.
  
 This software contains proprietary and confidential information,
 including trade secrets, belonging to Gaussian, Inc.
  
 This software is provided under written license and may be
 used, copied, transmitted, or stored only in accord with that
 written license.
  
 The following legend is applicable only to US Government
 contracts under FAR:
  
                    RESTRICTED RIGHTS LEGEND
  
 Use, reproduction and disclosure by the US Government is
 subject to restrictions as set forth in subparagraphs (a)
 and (c) of the Commercial Computer Software - Restricted
 Rights clause in FAR 52.227-19.
  
 Gaussian, Inc.
 340 Quinnipiac St., Bldg. 40, Wallingford CT 06492
  
  
 ---------------------------------------------------------------
 Warning -- This program may not be used in any manner that
 competes with the business of Gaussian, Inc. or will provide
 assistance to any competitor of Gaussian, Inc.  The licensee
 of this program is prohibited from giving any competitor of
 Gaussian, Inc. access to this program.  By using this program,
 the user acknowledges that Gaussian, Inc. is engaged in the
 business of creating and licensing software in the field of
 computational chemistry and represents and warrants to the
 licensee that it is not a competitor of Gaussian, Inc. and that
 it will not use this program in any manner prohibited above.
 ---------------------------------------------------------------
  

 Cite this work as:
 Gaussian 09, Revision A.02,
 M. J. Frisch, G. W. Trucks, H. B. Schlegel, G. E. Scuseria, 
 M. A. Robb, J. R. Cheeseman, G. Scalmani, V. Barone, B. Mennucci, 
 G. A. Petersson, H. Nakatsuji, M. Caricato, X. Li, H. P. Hratchian, 
 A. F. Izmaylov, J. Bloino, G. Zheng, J. L. Sonnenberg, M. Hada, 
 M. Ehara, K. Toyota, R. Fukuda, J. Hasegawa, M. Ishida, T. Nakajima, 
 Y. Honda, O. Kitao, H. Nakai, T. Vreven, J. A. Montgomery, Jr., 
 J. E. Peralta, F. Ogliaro, M. Bearpark, J. J. Heyd, E. Brothers, 
 K. N. Kudin, V. N. Staroverov, R. Kobayashi, J. Normand, 
 K. Raghavachari, A. Rendell, J. C. Burant, S. S. Iyengar, J. Tomasi, 
 M. Cossi, N. Rega, J. M. Millam, M. Klene, J. E. Knox, J. B. Cross, 
 V. Bakken, C. Adamo, J. Jaramillo, R. Gomperts, R. E. Stratmann, 
 O. Yazyev, A. J. Austin, R. Cammi, C. Pomelli, J. W. Ochterski, 
 R. L. Martin, K. Morokuma, V. G. Zakrzewski, G. A. Voth, 
 P. Salvador, J. J. Dannenberg, S. Dapprich, A. D. Daniels, 
 O. Farkas, J. B. Foresman, J. V. Ortiz, J. Cioslowski, 
 and D. J. Fox, Gaussian, Inc., Wallingford CT, 2009.
 
 ******************************************
 Gaussian 09:  IA32W-G09RevA.02 11-Jun-2009
                06-Jul-2019 
 ******************************************
 %nprocshared=4
 Will use up to    4 processors via shared memory.
 %mem=1600MB
 ----------------------------------------------------
 #p opt b3lyp/6-311++g(d,p) pop=nbo geom=connectivity
 ----------------------------------------------------
 1/14=-1,18=20,19=15,26=3,38=1,57=2/1,3;
 2/9=110,12=2,17=6,18=5,40=1/2;
 3/5=4,6=6,7=1111,11=2,16=1,25=1,30=1,71=1,74=-5/1,2,3;
 4//1;
 5/5=2,38=5/2;
 6/7=2,8=2,9=2,10=2,28=1/1,7;
 7//1,2,3,16;
 1/14=-1,18=20,19=15/3(2);
 2/9=110/2;
 99//99;
 2/9=110/2;
 3/5=4,6=6,7=1111,11=2,16=1,25=1,30=1,71=1,74=-5/1,2,3;
 4/5=5,16=3/1;
 5/5=2,38=5/2;
 7//1,2,3,16;
 1/14=-1,18=20,19=15/3(-5);
 2/9=110/2;
 6/7=2,8=2,9=2,10=2,19=2,28=1/1,7;
 99/9=1/99;
 Leave Link    1 at Sat Jul 06 08:44:56 2019, MaxMem=  209715200 cpu:       0.0
 (Enter C:\G09W\l101.exe)
 ------
 8b.log
 ------
 Symbolic Z-matrix:
 Charge =  0 Multiplicity = 1
 C                    -2.31679  -0.191     1.16225 
 C                    -1.70702   0.45016   0.09413 
 C                    -2.43764   0.73859  -1.04965 
 C                    -3.77399   0.38357  -1.12385 
 C                    -4.37974  -0.27067  -0.06302 
 C                    -3.64967  -0.55941   1.07799 
 N                    -0.33741   0.83608   0.17872 
 C                     0.70794  -0.00047   0.03746 
 C                     2.01483   0.26909   0.04046 
 C                     0.55875  -1.48543  -0.17326 
 C                     2.77487  -0.96376  -0.16067 
 O                     1.87343  -1.96531  -0.28047 
 Cl                    2.74964   1.81089   0.2322 
 O                     3.93922  -1.14045  -0.22096 
 H                    -1.75041  -0.3869    2.05509 
 H                    -1.957     1.23674  -1.87276 
 H                    -4.33767   0.6111   -2.0107 
 H                    -5.416    -0.55084  -0.12445 
 H                    -4.11771  -1.05959   1.90669 
 H                    -0.12818   1.80802   0.23077 
 H                     0.06343  -1.96841   0.65892 
 H                     0.01129  -1.7057   -1.08164 
 
 NAtoms=     22 NQM=     22 NQMF=      0 NMic=      0 NMicF=      0 NTot=     22.
                    Isotopes and Nuclear Properties:
 (Nuclear quadrupole moments (NQMom) in fm**2, nuclear magnetic moments (NMagM)
  in nuclear magnetons)

  Atom         1           2           3           4           5           6           7           8           9          10
 IAtWgt=          12          12          12          12          12          12          14          12          12          12
 AtmWgt=  12.0000000  12.0000000  12.0000000  12.0000000  12.0000000  12.0000000  14.0030740  12.0000000  12.0000000  12.0000000
 NucSpn=           0           0           0           0           0           0           2           0           0           0
 AtZEff=   0.0000000   0.0000000   0.0000000   0.0000000   0.0000000   0.0000000   0.0000000   0.0000000   0.0000000   0.0000000
 NQMom=    0.0000000   0.0000000   0.0000000   0.0000000   0.0000000   0.0000000   2.0440000   0.0000000   0.0000000   0.0000000
 NMagM=    0.0000000   0.0000000   0.0000000   0.0000000   0.0000000   0.0000000   0.4037610   0.0000000   0.0000000   0.0000000

  Atom        11          12          13          14          15          16          17          18          19          20
 IAtWgt=          12          16          35          16           1           1           1           1           1           1
 AtmWgt=  12.0000000  15.9949146  34.9688527  15.9949146   1.0078250   1.0078250   1.0078250   1.0078250   1.0078250   1.0078250
 NucSpn=           0           0           3           0           1           1           1           1           1           1
 AtZEff=   0.0000000   0.0000000   0.0000000   0.0000000   0.0000000   0.0000000   0.0000000   0.0000000   0.0000000   0.0000000
 NQMom=    0.0000000   0.0000000  -8.1650000   0.0000000   0.0000000   0.0000000   0.0000000   0.0000000   0.0000000   0.0000000
 NMagM=    0.0000000   0.0000000   0.8218740   0.0000000   2.7928460   2.7928460   2.7928460   2.7928460   2.7928460   2.7928460

  Atom        21          22
 IAtWgt=           1           1
 AtmWgt=   1.0078250   1.0078250
 NucSpn=           1           1
 AtZEff=   0.0000000   0.0000000
 NQMom=    0.0000000   0.0000000
 NMagM=    2.7928460   2.7928460
 Leave Link  101 at Sat Jul 06 08:44:56 2019, MaxMem=  209715200 cpu:       0.0
 (Enter C:\G09W\l103.exe)

 GradGradGradGradGradGradGradGradGradGradGradGradGradGradGradGradGradGrad
 Berny optimization.
 Initialization pass.
                           ----------------------------
                           !    Initial Parameters    !
                           ! (Angstroms and Degrees)  !
 --------------------------                            --------------------------
 ! Name  Definition              Value          Derivative Info.                !
 --------------------------------------------------------------------------------
 ! R1    R(1,2)                  1.387          estimate D2E/DX2                !
 ! R2    R(1,6)                  1.3854         estimate D2E/DX2                !
 ! R3    R(1,15)                 1.0753         estimate D2E/DX2                !
 ! R4    R(2,3)                  1.3875         estimate D2E/DX2                !
 ! R5    R(2,7)                  1.4255         estimate D2E/DX2                !
 ! R6    R(3,4)                  1.3847         estimate D2E/DX2                !
 ! R7    R(3,16)                 1.0755         estimate D2E/DX2                !
 ! R8    R(4,5)                  1.3858         estimate D2E/DX2                !
 ! R9    R(4,17)                 1.0752         estimate D2E/DX2                !
 ! R10   R(5,6)                  1.385          estimate D2E/DX2                !
 ! R11   R(5,18)                 1.0752         estimate D2E/DX2                !
 ! R12   R(6,19)                 1.0752         estimate D2E/DX2                !
 ! R13   R(7,8)                  1.3463         estimate D2E/DX2                !
 ! R14   R(7,20)                 0.9956         estimate D2E/DX2                !
 ! R15   R(8,9)                  1.3344         estimate D2E/DX2                !
 ! R16   R(8,10)                 1.5072         estimate D2E/DX2                !
 ! R17   R(9,11)                 1.4622         estimate D2E/DX2                !
 ! R18   R(9,13)                 1.7187         estimate D2E/DX2                !
 ! R19   R(10,12)                1.4036         estimate D2E/DX2                !
 ! R20   R(10,21)                1.0822         estimate D2E/DX2                !
 ! R21   R(10,22)                1.0832         estimate D2E/DX2                !
 ! R22   R(11,12)                1.3528         estimate D2E/DX2                !
 ! R23   R(11,14)                1.1792         estimate D2E/DX2                !
 ! A1    A(2,1,6)              119.9369         estimate D2E/DX2                !
 ! A2    A(2,1,15)             119.4761         estimate D2E/DX2                !
 ! A3    A(6,1,15)             120.5828         estimate D2E/DX2                !
 ! A4    A(1,2,3)              119.961          estimate D2E/DX2                !
 ! A5    A(1,2,7)              120.123          estimate D2E/DX2                !
 ! A6    A(3,2,7)              119.9055         estimate D2E/DX2                !
 ! A7    A(2,3,4)              119.9375         estimate D2E/DX2                !
 ! A8    A(2,3,16)             119.4624         estimate D2E/DX2                !
 ! A9    A(4,3,16)             120.6            estimate D2E/DX2                !
 ! A10   A(3,4,5)              120.1246         estimate D2E/DX2                !
 ! A11   A(3,4,17)             119.7301         estimate D2E/DX2                !
 ! A12   A(5,4,17)             120.1438         estimate D2E/DX2                !
 ! A13   A(4,5,6)              119.9117         estimate D2E/DX2                !
 ! A14   A(4,5,18)             120.0371         estimate D2E/DX2                !
 ! A15   A(6,5,18)             120.0509         estimate D2E/DX2                !
 ! A16   A(1,6,5)              120.1189         estimate D2E/DX2                !
 ! A17   A(1,6,19)             119.7118         estimate D2E/DX2                !
 ! A18   A(5,6,19)             120.1652         estimate D2E/DX2                !
 ! A19   A(2,7,8)              124.8615         estimate D2E/DX2                !
 ! A20   A(2,7,20)             117.9916         estimate D2E/DX2                !
 ! A21   A(8,7,20)             116.6743         estimate D2E/DX2                !
 ! A22   A(7,8,9)              129.3976         estimate D2E/DX2                !
 ! A23   A(7,8,10)             123.3668         estimate D2E/DX2                !
 ! A24   A(9,8,10)             107.2339         estimate D2E/DX2                !
 ! A25   A(8,9,11)             109.782          estimate D2E/DX2                !
 ! A26   A(8,9,13)             126.8837         estimate D2E/DX2                !
 ! A27   A(11,9,13)            123.3321         estimate D2E/DX2                !
 ! A28   A(8,10,12)            104.7617         estimate D2E/DX2                !
 ! A29   A(8,10,21)            112.1781         estimate D2E/DX2                !
 ! A30   A(8,10,22)            111.568          estimate D2E/DX2                !
 ! A31   A(12,10,21)           109.5633         estimate D2E/DX2                !
 ! A32   A(12,10,22)           109.865          estimate D2E/DX2                !
 ! A33   A(21,10,22)           108.8315         estimate D2E/DX2                !
 ! A34   A(9,11,12)            106.8607         estimate D2E/DX2                !
 ! A35   A(9,11,14)            130.2855         estimate D2E/DX2                !
 ! A36   A(12,11,14)           122.8537         estimate D2E/DX2                !
 ! A37   A(10,12,11)           111.3616         estimate D2E/DX2                !
 ! D1    D(6,1,2,3)              0.9126         estimate D2E/DX2                !
 ! D2    D(6,1,2,7)            179.7322         estimate D2E/DX2                !
 ! D3    D(15,1,2,3)          -178.3516         estimate D2E/DX2                !
 ! D4    D(15,1,2,7)             0.468          estimate D2E/DX2                !
 ! D5    D(2,1,6,5)             -0.9721         estimate D2E/DX2                !
 ! D6    D(2,1,6,19)           179.7683         estimate D2E/DX2                !
 ! D7    D(15,1,6,5)           178.2839         estimate D2E/DX2                !
 ! D8    D(15,1,6,19)           -0.9757         estimate D2E/DX2                !
 ! D9    D(1,2,3,4)             -0.1184         estimate D2E/DX2                !
 ! D10   D(1,2,3,16)           179.9476         estimate D2E/DX2                !
 ! D11   D(7,2,3,4)           -178.9406         estimate D2E/DX2                !
 ! D12   D(7,2,3,16)             1.1254         estimate D2E/DX2                !
 ! D13   D(1,2,7,8)             77.6383         estimate D2E/DX2                !
 ! D14   D(1,2,7,20)          -110.5329         estimate D2E/DX2                !
 ! D15   D(3,2,7,8)           -103.5414         estimate D2E/DX2                !
 ! D16   D(3,2,7,20)            68.2874         estimate D2E/DX2                !
 ! D17   D(2,3,4,5)             -0.6191         estimate D2E/DX2                !
 ! D18   D(2,3,4,17)           179.8329         estimate D2E/DX2                !
 ! D19   D(16,3,4,5)           179.3141         estimate D2E/DX2                !
 ! D20   D(16,3,4,17)           -0.2339         estimate D2E/DX2                !
 ! D21   D(3,4,5,6)              0.561          estimate D2E/DX2                !
 ! D22   D(3,4,5,18)          -179.6403         estimate D2E/DX2                !
 ! D23   D(17,4,5,6)          -179.8929         estimate D2E/DX2                !
 ! D24   D(17,4,5,18)           -0.0942         estimate D2E/DX2                !
 ! D25   D(4,5,6,1)              0.2359         estimate D2E/DX2                !
 ! D26   D(4,5,6,19)           179.4921         estimate D2E/DX2                !
 ! D27   D(18,5,6,1)          -179.5627         estimate D2E/DX2                !
 ! D28   D(18,5,6,19)           -0.3065         estimate D2E/DX2                !
 ! D29   D(2,7,8,9)            176.7316         estimate D2E/DX2                !
 ! D30   D(2,7,8,10)            -2.7349         estimate D2E/DX2                !
 ! D31   D(20,7,8,9)             4.8056         estimate D2E/DX2                !
 ! D32   D(20,7,8,10)         -174.6609         estimate D2E/DX2                !
 ! D33   D(7,8,9,11)          -179.458          estimate D2E/DX2                !
 ! D34   D(7,8,9,13)             0.0093         estimate D2E/DX2                !
 ! D35   D(10,8,9,11)            0.0755         estimate D2E/DX2                !
 ! D36   D(10,8,9,13)          179.5428         estimate D2E/DX2                !
 ! D37   D(7,8,10,12)          179.5031         estimate D2E/DX2                !
 ! D38   D(7,8,10,21)          -61.7228         estimate D2E/DX2                !
 ! D39   D(7,8,10,22)           60.6859         estimate D2E/DX2                !
 ! D40   D(9,8,10,12)           -0.0653         estimate D2E/DX2                !
 ! D41   D(9,8,10,21)          118.7088         estimate D2E/DX2                !
 ! D42   D(9,8,10,22)         -118.8824         estimate D2E/DX2                !
 ! D43   D(8,9,11,12)           -0.0588         estimate D2E/DX2                !
 ! D44   D(8,9,11,14)          179.8673         estimate D2E/DX2                !
 ! D45   D(13,9,11,12)        -179.5489         estimate D2E/DX2                !
 ! D46   D(13,9,11,14)           0.3773         estimate D2E/DX2                !
 ! D47   D(8,10,12,11)           0.0293         estimate D2E/DX2                !
 ! D48   D(21,10,12,11)       -120.4964         estimate D2E/DX2                !
 ! D49   D(22,10,12,11)        119.99           estimate D2E/DX2                !
 ! D50   D(9,11,12,10)           0.0142         estimate D2E/DX2                !
 ! D51   D(14,11,12,10)       -179.9187         estimate D2E/DX2                !
 --------------------------------------------------------------------------------
 Trust Radius=3.00D-01 FncErr=1.00D-07 GrdErr=1.00D-06
 Number of steps in this run= 121 maximum allowed number of steps= 132.
 GradGradGradGradGradGradGradGradGradGradGradGradGradGradGradGradGradGrad

 Leave Link  103 at Sat Jul 06 08:44:56 2019, MaxMem=  209715200 cpu:       0.0
 (Enter C:\G09W\l202.exe)
                          Input orientation:                          
 ---------------------------------------------------------------------
 Center     Atomic      Atomic             Coordinates (Angstroms)
 Number     Number       Type             X           Y           Z
 ---------------------------------------------------------------------
      1          6           0       -2.316791   -0.191004    1.162246
      2          6           0       -1.707024    0.450161    0.094134
      3          6           0       -2.437638    0.738589   -1.049648
      4          6           0       -3.773990    0.383574   -1.123852
      5          6           0       -4.379738   -0.270674   -0.063015
      6          6           0       -3.649672   -0.559412    1.077987
      7          7           0       -0.337413    0.836076    0.178724
      8          6           0        0.707937   -0.000468    0.037464
      9          6           0        2.014833    0.269090    0.040463
     10          6           0        0.558749   -1.485433   -0.173264
     11          6           0        2.774867   -0.963760   -0.160667
     12          8           0        1.873425   -1.965307   -0.280467
     13         17           0        2.749636    1.810889    0.232195
     14          8           0        3.939217   -1.140446   -0.220957
     15          1           0       -1.750412   -0.386904    2.055085
     16          1           0       -1.956999    1.236741   -1.872757
     17          1           0       -4.337675    0.611099   -2.010699
     18          1           0       -5.416001   -0.550842   -0.124451
     19          1           0       -4.117710   -1.059594    1.906691
     20          1           0       -0.128177    1.808015    0.230774
     21          1           0        0.063433   -1.968405    0.658919
     22          1           0        0.011288   -1.705700   -1.081642
 ---------------------------------------------------------------------
                    Distance matrix (angstroms):
                    1          2          3          4          5
     1  C    0.000000
     2  C    1.387001   0.000000
     3  C    2.402337   1.387525   0.000000
     4  C    2.771248   2.400057   1.384694   0.000000
     5  C    2.400700   2.772670   2.400793   1.385766   0.000000
     6  C    1.385423   2.400226   2.771401   2.398494   1.385010
     7  N    2.437241   1.425454   2.435025   3.702907   4.198062
     8  C    3.232711   2.457298   3.409202   4.645838   5.095836
     9  C    4.498116   3.726646   4.607957   5.905862   6.418145
    10  C    3.424597   2.991948   3.833100   4.813464   5.086890
    11  C    5.317164   4.706532   5.555042   6.755040   7.188760
    12  O    4.773624   4.335254   5.146645   6.174288   6.482369
    13  Cl   5.526414   4.661809   5.449840   6.814234   7.432902
    14  O    6.477062   5.874466   6.699387   7.914001   8.365791
    15  H    1.075325   2.132578   3.373186   3.846316   3.378345
    16  H    3.373299   2.133039   1.075490   2.142477   3.378924
    17  H    3.846417   3.372914   2.133076   1.075177   2.138403
    18  H    3.374933   3.847895   3.374799   2.137320   1.075225
    19  H    2.133531   3.372852   3.846563   3.374177   2.137942
    20  H    3.107048   2.086911   2.848993   4.141980   4.741627
    21  H    3.012965   3.050076   4.062311   4.841063   4.810951
    22  H    3.570615   2.997129   3.460175   4.323792   4.730540
                    6          7          8          9         10
     6  C    0.000000
     7  N    3.705013   0.000000
     8  C    4.514849   1.346297   0.000000
     9  C    5.818031   2.423562   1.334409   0.000000
    10  C    4.487087   2.513246   1.507244   2.290024   0.000000
    11  C    6.555338   3.611216   2.288971   1.462198   2.276726
    12  O    5.858885   3.598112   2.306520   2.261752   1.403618
    13  Cl   6.876397   3.237745   2.736324   1.718674   3.978709
    14  O    7.721146   4.728208   3.436205   2.399664   3.398361
    15  H    2.142818   2.648203   3.203686   4.320428   3.391833
    16  H    3.846843   2.644270   3.504499   4.513558   4.077683
    17  H    3.373933   4.565773   5.479707   6.684205   5.634411
    18  H    2.136785   5.273283   6.150752   7.477752   6.047601
    19  H    1.075171   4.568378   5.282294   6.546472   5.135837
    20  H    4.327055   0.995567   2.001766   2.645184   3.388497
    21  H    3.993498   2.873391   2.162029   3.032628   1.082187
    22  H    4.402340   2.858451   2.155350   3.028714   1.083227
                   11         12         13         14         15
    11  C    0.000000
    12  O    1.352792   0.000000
    13  Cl   2.802437   3.910272   0.000000
    14  O    1.179222   2.225182   3.214161   0.000000
    15  H    5.071535   4.591117   5.329508   6.174145   0.000000
    16  H    5.492177   5.240291   5.187763   6.568472   4.255214
    17  H    7.516053   6.943294   7.529943   8.647429   4.921437
    18  H    8.201349   7.427031   8.507796   9.374276   4.267762
    19  H    7.196581   6.441869   7.629158   8.333516   2.465488
    20  H    4.032819   4.301829   2.877815   5.043925   3.282899
    21  H    3.005480   2.039247   4.656269   4.059729   2.782168
    22  H    3.006000   2.043730   4.646624   4.060655   3.831692
                   16         17         18         19         20
    16  H    0.000000
    17  H    2.465375   0.000000
    18  H    4.268105   2.463904   0.000000
    19  H    4.921997   4.264451   2.463722   0.000000
    20  H    2.845310   4.916979   5.800989   5.191171   0.000000
    21  H    4.556807   5.757643   5.713786   4.456998   3.805440
    22  H    3.627392   5.014398   5.630753   5.137724   3.753409
                   21         22
    21  H    0.000000
    22  H    1.761047   0.000000
 Stoichiometry    C10H8ClNO2
 Framework group  C1[X(C10H8ClNO2)]
 Deg. of freedom    60
 Full point group                 C1      NOp   1
 Largest Abelian subgroup         C1      NOp   1
 Largest concise Abelian subgroup C1      NOp   1
                         Standard orientation:                         
 ---------------------------------------------------------------------
 Center     Atomic      Atomic             Coordinates (Angstroms)
 Number     Number       Type             X           Y           Z
 ---------------------------------------------------------------------
      1          6           0       -2.316791   -0.191004    1.162246
      2          6           0       -1.707024    0.450161    0.094134
      3          6           0       -2.437638    0.738589   -1.049648
      4          6           0       -3.773990    0.383574   -1.123852
      5          6           0       -4.379738   -0.270674   -0.063015
      6          6           0       -3.649672   -0.559412    1.077987
      7          7           0       -0.337413    0.836076    0.178724
      8          6           0        0.707937   -0.000468    0.037464
      9          6           0        2.014833    0.269090    0.040463
     10          6           0        0.558749   -1.485433   -0.173264
     11          6           0        2.774867   -0.963760   -0.160667
     12          8           0        1.873425   -1.965307   -0.280467
     13         17           0        2.749636    1.810889    0.232195
     14          8           0        3.939217   -1.140446   -0.220957
     15          1           0       -1.750412   -0.386904    2.055085
     16          1           0       -1.956999    1.236741   -1.872757
     17          1           0       -4.337675    0.611099   -2.010699
     18          1           0       -5.416001   -0.550842   -0.124451
     19          1           0       -4.117710   -1.059594    1.906691
     20          1           0       -0.128177    1.808015    0.230774
     21          1           0        0.063433   -1.968405    0.658919
     22          1           0        0.011288   -1.705700   -1.081642
 ---------------------------------------------------------------------
 Rotational constants (GHZ):      1.4200092      0.3150208      0.2809930
 Leave Link  202 at Sat Jul 06 08:44:56 2019, MaxMem=  209715200 cpu:       0.0
 (Enter C:\G09W\l301.exe)
 Standard basis: 6-311++G(d,p) (5D, 7F)
 Ernie: Thresh=  0.10000D-02 Tol=  0.10000D-05 Strict=F.
 There are   372 symmetry adapted basis functions of A   symmetry.
 Integral buffers will be    262144 words long.
 Raffenetti 2 integral format.
 Two-electron integral symmetry is turned on.
   372 basis functions,   593 primitive gaussians,   386 cartesian basis functions
    54 alpha electrons       54 beta electrons
       nuclear repulsion energy       926.8312463657 Hartrees.
 IExCor=  402 DFT=T Ex+Corr=B3LYP ExCW=0 ScaHFX=  0.200000
 ScaDFX=  0.800000  0.720000  1.000000  0.810000 ScalE2=  1.000000  1.000000
 IRadAn=      0 IRanWt=     -1 IRanGd=            0 ICorTp=0
 NAtoms=   22 NActive=   22 NUniq=   22 SFac= 7.50D-01 NAtFMM=   80 NAOKFM=F Big=F
 Leave Link  301 at Sat Jul 06 08:44:56 2019, MaxMem=  209715200 cpu:       0.0
 (Enter C:\G09W\l302.exe)
 NPDir=0 NMtPBC=     1 NCelOv=     1 NCel=       1 NClECP=     1 NCelD=      1
         NCelK=      1 NCelE2=     1 NClLst=     1 CellRange=     0.0.
 One-electron integrals computed using PRISM.
 NBasis=   372 RedAO= T  NBF=   372
 NBsUse=   371 1.00D-06 NBFU=   371
 Precomputing XC quadrature grid using
 IXCGrd= 2 IRadAn=           0 IRanWt=          -1 IRanGd=           0 AccXCQ= 1.00D-10.
 NRdTot=    1424 NPtTot=      182124 NUsed=      188764 NTot=      188780
 NSgBfM=   383   383   384   384   384 NAtAll=    22    22.
 Leave Link  302 at Sat Jul 06 08:44:57 2019, MaxMem=  209715200 cpu:       1.0
 (Enter C:\G09W\l303.exe)
 DipDrv:  MaxL=1.
 Leave Link  303 at Sat Jul 06 08:44:57 2019, MaxMem=  209715200 cpu:       0.0
 (Enter C:\G09W\l401.exe)
 Harris functional with IExCor=  402 diagonalized for initial guess.
 ExpMin= 3.60D-02 ExpMax= 1.06D+05 ExpMxC= 3.62D+03 IAcc=3 IRadAn=         0 AccDes= 0.00D+00
 HarFok:  IExCor=  402 AccDes= 0.00D+00 IRadAn=         0 IDoV= 1
 ScaDFX=  1.000000  1.000000  1.000000  1.000000
 FoFCou: FMM=F IPFlag=           0 FMFlag=      100000 FMFlg1=           0
         NFxFlg=           0 DoJE=T BraDBF=F KetDBF=T FulRan=T
         Omega=  0.000000  0.000000  1.000000  0.000000  0.000000 ICntrl=     500 IOpCl=  0
         NMat0=    1 NMatS0=    1 NMatT0=    0 NMatD0=    1 NMtDS0=    0 NMtDT0=    0
         I1Cent=           4 NGrid=           0.
 Petite list used in FoFCou.
 Harris En= -1051.50794935473    
 Initial guess orbital symmetries:
       Occupied  (A) (A) (A) (A) (A) (A) (A) (A) (A) (A) (A) (A)
                 (A) (A) (A) (A) (A) (A) (A) (A) (A) (A) (A) (A)
                 (A) (A) (A) (A) (A) (A) (A) (A) (A) (A) (A) (A)
                 (A) (A) (A) (A) (A) (A) (A) (A) (A) (A) (A) (A)
                 (A) (A) (A) (A) (A) (A)
       Virtual   (A) (A) (A) (A) (A) (A) (A) (A) (A) (A) (A) (A)
                 (A) (A) (A) (A) (A) (A) (A) (A) (A) (A) (A) (A)
                 (A) (A) (A) (A) (A) (A) (A) (A) (A) (A) (A) (A)
                 (A) (A) (A) (A) (A) (A) (A) (A) (A) (A) (A) (A)
                 (A) (A) (A) (A) (A) (A) (A) (A) (A) (A) (A) (A)
                 (A) (A) (A) (A) (A) (A) (A) (A) (A) (A) (A) (A)
                 (A) (A) (A) (A) (A) (A) (A) (A) (A) (A) (A) (A)
                 (A) (A) (A) (A) (A) (A) (A) (A) (A) (A) (A) (A)
                 (A) (A) (A) (A) (A) (A) (A) (A) (A) (A) (A) (A)
                 (A) (A) (A) (A) (A) (A) (A) (A) (A) (A) (A) (A)
                 (A) (A) (A) (A) (A) (A) (A) (A) (A) (A) (A) (A)
                 (A) (A) (A) (A) (A) (A) (A) (A) (A) (A) (A) (A)
                 (A) (A) (A) (A) (A) (A) (A) (A) (A) (A) (A) (A)
                 (A) (A) (A) (A) (A) (A) (A) (A) (A) (A) (A) (A)
                 (A) (A) (A) (A) (A) (A) (A) (A) (A) (A) (A) (A)
                 (A) (A) (A) (A) (A) (A) (A) (A) (A) (A) (A) (A)
                 (A) (A) (A) (A) (A) (A) (A) (A) (A) (A) (A) (A)
                 (A) (A) (A) (A) (A) (A) (A) (A) (A) (A) (A) (A)
                 (A) (A) (A) (A) (A) (A) (A) (A) (A) (A) (A) (A)
                 (A) (A) (A) (A) (A) (A) (A) (A) (A) (A) (A) (A)
                 (A) (A) (A) (A) (A) (A) (A) (A) (A) (A) (A) (A)
                 (A) (A) (A) (A) (A) (A) (A) (A) (A) (A) (A) (A)
                 (A) (A) (A) (A) (A) (A) (A) (A) (A) (A) (A) (A)
                 (A) (A) (A) (A) (A) (A) (A) (A) (A) (A) (A) (A)
                 (A) (A) (A) (A) (A) (A) (A) (A) (A) (A) (A) (A)
                 (A) (A) (A) (A) (A) (A) (A) (A) (A) (A) (A) (A)
                 (A) (A) (A) (A) (A)
 The electronic state of the initial guess is 1-A.
 Leave Link  401 at Sat Jul 06 08:45:02 2019, MaxMem=  209715200 cpu:       5.0
 (Enter C:\G09W\l502.exe)
 Closed shell SCF:
 Requested convergence on RMS density matrix=1.00D-08 within 128 cycles.
 Requested convergence on MAX density matrix=1.00D-06.
 Requested convergence on             energy=1.00D-06.
 No special actions if energy rises.
 Using DIIS extrapolation, IDIIS=  1040.
 Integral symmetry usage will be decided dynamically.
       188576 words used for storage of precomputed grid.
 IEnd=      658413 IEndB=      658413 NGot=   209715200 MDV=   209222810
 LenX=   209222810 LenY=   209073373
 Fock matrices will be formed incrementally for  20 cycles.

 Cycle   1  Pass 1  IDiag  1:
 FoFCou: FMM=F IPFlag=           0 FMFlag=      100000 FMFlg1=           0
         NFxFlg=           0 DoJE=F BraDBF=F KetDBF=F FulRan=T
         Omega=  0.000000  0.000000  1.000000  0.000000  0.000000 ICntrl=       0 IOpCl=  0
         NMat0=    1 NMatS0=    1 NMatT0=    0 NMatD0=    1 NMtDS0=    0 NMtDT0=    0
         I1Cent=           0 NGrid=           0.
 Symmetry not used in FoFCou.
 E= -1051.11845158442    
 DIIS: error= 2.41D-02 at cycle   1 NSaved=   1.
 NSaved= 1 IEnMin= 1 EnMin= -1051.11845158442     IErMin= 1 ErrMin= 2.41D-02
 ErrMax= 2.41D-02 EMaxC= 1.00D-01 BMatC= 4.37D-01 BMatP= 4.37D-01
 IDIUse=3 WtCom= 7.59D-01 WtEn= 2.41D-01
 Coeff-Com:  0.100D+01
 Coeff-En:   0.100D+01
 Coeff:      0.100D+01
 Gap=     0.280 Goal=   None    Shift=    0.000
 GapD=    0.280 DampG=1.000 DampE=0.500 DampFc=0.5000 IDamp=-1.
 Damping current iteration by 5.00D-01
 RMSDP=2.81D-02 MaxDP=2.34D+00              OVMax= 2.75D-01

 Cycle   2  Pass 1  IDiag  1:
 RMSU=  8.51D-03    CP:  9.09D-01
 E= -1051.22974725376     Delta-E=       -0.111295669339 Rises=F Damp=T
 DIIS: error= 7.88D-03 at cycle   2 NSaved=   2.
 NSaved= 2 IEnMin= 2 EnMin= -1051.22974725376     IErMin= 2 ErrMin= 7.88D-03
 ErrMax= 7.88D-03 EMaxC= 1.00D-01 BMatC= 5.25D-02 BMatP= 4.37D-01
 IDIUse=3 WtCom= 9.21D-01 WtEn= 7.88D-02
 Coeff-Com:  0.141D+00 0.859D+00
 Coeff-En:   0.282D+00 0.718D+00
 Coeff:      0.153D+00 0.847D+00
 Gap=     0.295 Goal=   None    Shift=    0.000
 RMSDP=2.30D-02 MaxDP=4.73D+00 DE=-1.11D-01 OVMax= 2.14D-01

 Cycle   3  Pass 1  IDiag  1:
 RMSU=  7.81D-03    CP:  6.91D-01  1.69D-01
 E= -1051.40404508314     Delta-E=       -0.174297829382 Rises=F Damp=F
 DIIS: error= 1.14D-02 at cycle   3 NSaved=   3.
 NSaved= 3 IEnMin= 3 EnMin= -1051.40404508314     IErMin= 2 ErrMin= 7.88D-03
 ErrMax= 1.14D-02 EMaxC= 1.00D-01 BMatC= 6.84D-02 BMatP= 5.25D-02
 IDIUse=2 WtCom= 0.00D+00 WtEn= 1.00D+00
 Coeff-En:   0.000D+00 0.000D+00 0.100D+01
 Coeff:      0.000D+00 0.000D+00 0.100D+01
 Gap=     0.206 Goal=   None    Shift=    0.000
 RMSDP=1.36D-02 MaxDP=1.76D+00 DE=-1.74D-01 OVMax= 3.26D-01

 Cycle   4  Pass 1  IDiag  1:
 RMSU=  5.89D-03    CP:  5.81D-01  5.95D-01  1.31D+00
 E= -1051.11817374194     Delta-E=        0.285871341207 Rises=F Damp=F
 DIIS: error= 2.97D-02 at cycle   4 NSaved=   4.
 NSaved= 4 IEnMin= 3 EnMin= -1051.40404508314     IErMin= 2 ErrMin= 7.88D-03
 ErrMax= 2.97D-02 EMaxC= 1.00D-01 BMatC= 4.21D-01 BMatP= 5.25D-02
 IDIUse=2 WtCom= 0.00D+00 WtEn= 1.00D+00
 Coeff-En:   0.000D+00 0.000D+00 0.808D+00 0.192D+00
 Coeff:      0.000D+00 0.000D+00 0.808D+00 0.192D+00
 Gap=     0.193 Goal=   None    Shift=    0.000
 RMSDP=6.47D-03 MaxDP=6.72D-01 DE= 2.86D-01 OVMax= 1.21D-01

 Cycle   5  Pass 1  IDiag  1:
 RMSU=  8.58D-04    CP:  6.18D-01  3.61D-01  1.15D+00  4.52D-01
 E= -1051.42986685847     Delta-E=       -0.311693116532 Rises=F Damp=F
 DIIS: error= 8.12D-03 at cycle   5 NSaved=   5.
 NSaved= 5 IEnMin= 5 EnMin= -1051.42986685847     IErMin= 2 ErrMin= 7.88D-03
 ErrMax= 8.12D-03 EMaxC= 1.00D-01 BMatC= 3.55D-02 BMatP= 5.25D-02
 IDIUse=3 WtCom= 9.19D-01 WtEn= 8.12D-02
 Coeff-Com:  0.118D-02 0.246D-01 0.321D+00-0.971D-01 0.751D+00
 Coeff-En:   0.000D+00 0.000D+00 0.380D+00 0.000D+00 0.620D+00
 Coeff:      0.109D-02 0.226D-01 0.325D+00-0.892D-01 0.740D+00
 Gap=     0.188 Goal=   None    Shift=    0.000
 RMSDP=2.67D-03 MaxDP=3.46D-01 DE=-3.12D-01 OVMax= 4.59D-02

 Cycle   6  Pass 1  IDiag  1:
 RMSU=  2.34D-04    CP:  6.39D-01  2.91D-01  1.10D+00  2.41D-01  9.66D-01
 E= -1051.45738498032     Delta-E=       -0.027518121851 Rises=F Damp=F
 DIIS: error= 1.02D-03 at cycle   6 NSaved=   6.
 NSaved= 6 IEnMin= 6 EnMin= -1051.45738498032     IErMin= 6 ErrMin= 1.02D-03
 ErrMax= 1.02D-03 EMaxC= 1.00D-01 BMatC= 9.74D-05 BMatP= 3.55D-02
 IDIUse=3 WtCom= 9.90D-01 WtEn= 1.02D-02
 Coeff-Com:  0.616D-03 0.830D-02 0.157D+00-0.571D-01 0.401D+00 0.490D+00
 Coeff-En:   0.000D+00 0.000D+00 0.000D+00 0.000D+00 0.000D+00 0.100D+01
 Coeff:      0.610D-03 0.822D-02 0.155D+00-0.565D-01 0.397D+00 0.495D+00
 Gap=     0.187 Goal=   None    Shift=    0.000
 RMSDP=3.29D-04 MaxDP=4.61D-02 DE=-2.75D-02 OVMax= 4.99D-03

 Cycle   7  Pass 1  IDiag  1:
 RMSU=  7.11D-05    CP:  6.36D-01  2.92D-01  1.10D+00  2.55D-01  9.84D-01
                    CP:  6.15D-01
 E= -1051.45745571091     Delta-E=       -0.000070730590 Rises=F Damp=F
 DIIS: error= 5.69D-04 at cycle   7 NSaved=   7.
 NSaved= 7 IEnMin= 7 EnMin= -1051.45745571091     IErMin= 7 ErrMin= 5.69D-04
 ErrMax= 5.69D-04 EMaxC= 1.00D-01 BMatC= 2.49D-05 BMatP= 9.74D-05
 IDIUse=3 WtCom= 9.94D-01 WtEn= 5.69D-03
 Coeff-Com:  0.761D-03-0.145D-02 0.397D-01-0.155D-01 0.995D-01 0.302D+00
 Coeff-Com:  0.575D+00
 Coeff-En:   0.000D+00 0.000D+00 0.000D+00 0.000D+00 0.000D+00 0.224D+00
 Coeff-En:   0.776D+00
 Coeff:      0.757D-03-0.145D-02 0.395D-01-0.154D-01 0.989D-01 0.302D+00
 Coeff:      0.576D+00
 Gap=     0.187 Goal=   None    Shift=    0.000
 RMSDP=2.13D-04 MaxDP=3.10D-02 DE=-7.07D-05 OVMax= 2.05D-03

 Cycle   8  Pass 1  IDiag  1:
 RMSU=  2.71D-05    CP:  6.38D-01  2.88D-01  1.09D+00  2.45D-01  9.53D-01
                    CP:  6.83D-01  6.89D-01
 E= -1051.45748051423     Delta-E=       -0.000024803319 Rises=F Damp=F
 DIIS: error= 9.08D-05 at cycle   8 NSaved=   8.
 NSaved= 8 IEnMin= 8 EnMin= -1051.45748051423     IErMin= 8 ErrMin= 9.08D-05
 ErrMax= 9.08D-05 EMaxC= 1.00D-01 BMatC= 2.47D-06 BMatP= 2.49D-05
 IDIUse=1 WtCom= 1.00D+00 WtEn= 0.00D+00
 Coeff-Com:  0.578D-03-0.172D-02 0.127D-01-0.471D-02 0.279D-01 0.154D+00
 Coeff-Com:  0.374D+00 0.438D+00
 Coeff:      0.578D-03-0.172D-02 0.127D-01-0.471D-02 0.279D-01 0.154D+00
 Coeff:      0.374D+00 0.438D+00
 Gap=     0.187 Goal=   None    Shift=    0.000
 RMSDP=3.76D-05 MaxDP=5.42D-03 DE=-2.48D-05 OVMax= 6.03D-04

 Cycle   9  Pass 1  IDiag  1:
 RMSU=  9.42D-06    CP:  6.37D-01  2.88D-01  1.10D+00  2.47D-01  9.60D-01
                    CP:  6.93D-01  7.00D-01  6.48D-01
 E= -1051.45748262993     Delta-E=       -0.000002115698 Rises=F Damp=F
 DIIS: error= 1.91D-05 at cycle   9 NSaved=   9.
 NSaved= 9 IEnMin= 9 EnMin= -1051.45748262993     IErMin= 9 ErrMin= 1.91D-05
 ErrMax= 1.91D-05 EMaxC= 1.00D-01 BMatC= 9.52D-08 BMatP= 2.47D-06
 IDIUse=1 WtCom= 1.00D+00 WtEn= 0.00D+00
 Coeff-Com:  0.240D-03-0.733D-03 0.201D-02-0.721D-03 0.282D-02 0.470D-01
 Coeff-Com:  0.132D+00 0.208D+00 0.609D+00
 Coeff:      0.240D-03-0.733D-03 0.201D-02-0.721D-03 0.282D-02 0.470D-01
 Coeff:      0.132D+00 0.208D+00 0.609D+00
 Gap=     0.187 Goal=   None    Shift=    0.000
 RMSDP=5.67D-06 MaxDP=3.69D-04 DE=-2.12D-06 OVMax= 1.70D-04

 Cycle  10  Pass 1  IDiag  1:
 RMSU=  2.61D-06    CP:  6.37D-01  2.88D-01  1.10D+00  2.47D-01  9.60D-01
                    CP:  6.89D-01  7.13D-01  7.06D-01  8.86D-01
 E= -1051.45748270160     Delta-E=       -0.000000071675 Rises=F Damp=F
 DIIS: error= 7.07D-06 at cycle  10 NSaved=  10.
 NSaved=10 IEnMin=10 EnMin= -1051.45748270160     IErMin=10 ErrMin= 7.07D-06
 ErrMax= 7.07D-06 EMaxC= 1.00D-01 BMatC= 1.71D-08 BMatP= 9.52D-08
 IDIUse=1 WtCom= 1.00D+00 WtEn= 0.00D+00
 Coeff-Com:  0.548D-04-0.146D-03-0.134D-03 0.528D-06-0.782D-03 0.731D-02
 Coeff-Com:  0.230D-01 0.519D-01 0.348D+00 0.571D+00
 Coeff:      0.548D-04-0.146D-03-0.134D-03 0.528D-06-0.782D-03 0.731D-02
 Coeff:      0.230D-01 0.519D-01 0.348D+00 0.571D+00
 Gap=     0.187 Goal=   None    Shift=    0.000
 RMSDP=3.88D-06 MaxDP=4.05D-04 DE=-7.17D-08 OVMax= 5.32D-05

 Cycle  11  Pass 1  IDiag  1:
 RMSU=  1.02D-06    CP:  6.37D-01  2.88D-01  1.10D+00  2.47D-01  9.60D-01
                    CP:  6.92D-01  7.12D-01  6.76D-01  8.63D-01  7.39D-01
 E= -1051.45748271787     Delta-E=       -0.000000016271 Rises=F Damp=F
 DIIS: error= 1.12D-06 at cycle  11 NSaved=  11.
 NSaved=11 IEnMin=11 EnMin= -1051.45748271787     IErMin=11 ErrMin= 1.12D-06
 ErrMax= 1.12D-06 EMaxC= 1.00D-01 BMatC= 8.53D-10 BMatP= 1.71D-08
 IDIUse=1 WtCom= 1.00D+00 WtEn= 0.00D+00
 Coeff-Com:  0.828D-05-0.240D-04-0.182D-03 0.476D-04-0.530D-03 0.979D-03
 Coeff-Com:  0.262D-02 0.122D-01 0.121D+00 0.269D+00 0.595D+00
 Coeff:      0.828D-05-0.240D-04-0.182D-03 0.476D-04-0.530D-03 0.979D-03
 Coeff:      0.262D-02 0.122D-01 0.121D+00 0.269D+00 0.595D+00
 Gap=     0.187 Goal=   None    Shift=    0.000
 RMSDP=1.03D-06 MaxDP=1.42D-04 DE=-1.63D-08 OVMax= 5.75D-06

 Cycle  12  Pass 1  IDiag  1:
 RMSU=  1.97D-07    CP:  6.37D-01  2.88D-01  1.10D+00  2.47D-01  9.60D-01
                    CP:  6.92D-01  7.11D-01  6.82D-01  8.85D-01  7.46D-01
                    CP:  7.78D-01
 E= -1051.45748271849     Delta-E=       -0.000000000615 Rises=F Damp=F
 DIIS: error= 6.36D-07 at cycle  12 NSaved=  12.
 NSaved=12 IEnMin=12 EnMin= -1051.45748271849     IErMin=12 ErrMin= 6.36D-07
 ErrMax= 6.36D-07 EMaxC= 1.00D-01 BMatC= 1.10D-10 BMatP= 8.53D-10
 IDIUse=1 WtCom= 1.00D+00 WtEn= 0.00D+00
 Coeff-Com: -0.226D-05 0.394D-05-0.106D-03 0.343D-04-0.257D-03-0.189D-03
 Coeff-Com: -0.111D-02 0.173D-02 0.294D-01 0.905D-01 0.307D+00 0.573D+00
 Coeff:     -0.226D-05 0.394D-05-0.106D-03 0.343D-04-0.257D-03-0.189D-03
 Coeff:     -0.111D-02 0.173D-02 0.294D-01 0.905D-01 0.307D+00 0.573D+00
 Gap=     0.187 Goal=   None    Shift=    0.000
 RMSDP=3.31D-07 MaxDP=4.57D-05 DE=-6.15D-10 OVMax= 2.78D-06

 Cycle  13  Pass 1  IDiag  1:
 RMSU=  5.05D-08    CP:  6.37D-01  2.88D-01  1.10D+00  2.47D-01  9.60D-01
                    CP:  6.91D-01  7.11D-01  6.84D-01  8.88D-01  7.54D-01
                    CP:  7.66D-01  8.57D-01
 E= -1051.45748271856     Delta-E=       -0.000000000068 Rises=F Damp=F
 DIIS: error= 1.20D-07 at cycle  13 NSaved=  13.
 NSaved=13 IEnMin=13 EnMin= -1051.45748271856     IErMin=13 ErrMin= 1.20D-07
 ErrMax= 1.20D-07 EMaxC= 1.00D-01 BMatC= 8.07D-12 BMatP= 1.10D-10
 IDIUse=1 WtCom= 1.00D+00 WtEn= 0.00D+00
 Coeff-Com: -0.218D-05 0.411D-05-0.228D-04 0.746D-05-0.386D-04-0.125D-03
 Coeff-Com: -0.677D-03-0.323D-03 0.543D-05 0.976D-02 0.475D-01 0.196D+00
 Coeff-Com:  0.748D+00
 Coeff:     -0.218D-05 0.411D-05-0.228D-04 0.746D-05-0.386D-04-0.125D-03
 Coeff:     -0.677D-03-0.323D-03 0.543D-05 0.976D-02 0.475D-01 0.196D+00
 Coeff:      0.748D+00
 Gap=     0.187 Goal=   None    Shift=    0.000
 RMSDP=1.83D-07 MaxDP=2.65D-05 DE=-6.78D-11 OVMax= 8.81D-07

 Cycle  14  Pass 1  IDiag  1:
 RMSU=  1.90D-08    CP:  6.37D-01  2.88D-01  1.10D+00  2.47D-01  9.60D-01
                    CP:  6.92D-01  7.11D-01  6.83D-01  8.86D-01  7.56D-01
                    CP:  7.93D-01  8.44D-01  6.57D-01
 E= -1051.45748271861     Delta-E=       -0.000000000059 Rises=F Damp=F
 DIIS: error= 1.06D-07 at cycle  14 NSaved=  14.
 NSaved=14 IEnMin=14 EnMin= -1051.45748271861     IErMin=14 ErrMin= 1.06D-07
 ErrMax= 1.06D-07 EMaxC= 1.00D-01 BMatC= 1.13D-12 BMatP= 8.07D-12
 IDIUse=1 WtCom= 1.00D+00 WtEn= 0.00D+00
 Coeff-Com: -0.101D-05 0.189D-05-0.526D-05 0.165D-05-0.297D-05-0.452D-04
 Coeff-Com: -0.267D-03-0.260D-03-0.205D-02-0.152D-02-0.819D-03 0.605D-01
 Coeff-Com:  0.428D+00 0.517D+00
 Coeff:     -0.101D-05 0.189D-05-0.526D-05 0.165D-05-0.297D-05-0.452D-04
 Coeff:     -0.267D-03-0.260D-03-0.205D-02-0.152D-02-0.819D-03 0.605D-01
 Coeff:      0.428D+00 0.517D+00
 Gap=     0.187 Goal=   None    Shift=    0.000
 RMSDP=1.67D-08 MaxDP=2.00D-06 DE=-5.87D-11 OVMax= 6.37D-07

 Cycle  15  Pass 1  IDiag  1:
 RMSU=  6.36D-09    CP:  6.37D-01  2.88D-01  1.10D+00  2.47D-01  9.60D-01
                    CP:  6.92D-01  7.11D-01  6.83D-01  8.86D-01  7.56D-01
                    CP:  7.92D-01  8.50D-01  7.19D-01  8.41D-01
 E= -1051.45748271859     Delta-E=        0.000000000021 Rises=F Damp=F
 DIIS: error= 3.78D-08 at cycle  15 NSaved=  15.
 NSaved=15 IEnMin=14 EnMin= -1051.45748271861     IErMin=15 ErrMin= 3.78D-08
 ErrMax= 3.78D-08 EMaxC= 1.00D-01 BMatC= 1.30D-13 BMatP= 1.13D-12
 IDIUse=1 WtCom= 1.00D+00 WtEn= 0.00D+00
 Coeff-Com: -0.251D-06 0.495D-06-0.250D-06-0.162D-07 0.270D-05-0.664D-05
 Coeff-Com: -0.529D-04-0.885D-04-0.108D-02-0.210D-02-0.768D-02 0.674D-02
 Coeff-Com:  0.138D+00 0.305D+00 0.561D+00
 Coeff:     -0.251D-06 0.495D-06-0.250D-06-0.162D-07 0.270D-05-0.664D-05
 Coeff:     -0.529D-04-0.885D-04-0.108D-02-0.210D-02-0.768D-02 0.674D-02
 Coeff:      0.138D+00 0.305D+00 0.561D+00
 Gap=     0.187 Goal=   None    Shift=    0.000
 RMSDP=1.89D-08 MaxDP=2.74D-06 DE= 2.09D-11 OVMax= 1.86D-07

 Cycle  16  Pass 1  IDiag  1:
 RMSU=  1.91D-09    CP:  6.37D-01  2.88D-01  1.10D+00  2.47D-01  9.60D-01
                    CP:  6.92D-01  7.11D-01  6.84D-01  8.86D-01  7.56D-01
                    CP:  7.88D-01  8.59D-01  7.53D-01  8.00D-01  7.03D-01
 E= -1051.45748271862     Delta-E=       -0.000000000029 Rises=F Damp=F
 DIIS: error= 2.80D-09 at cycle  16 NSaved=  16.
 NSaved=16 IEnMin=16 EnMin= -1051.45748271862     IErMin=16 ErrMin= 2.80D-09
 ErrMax= 2.80D-09 EMaxC= 1.00D-01 BMatC= 5.03D-15 BMatP= 1.30D-13
 IDIUse=1 WtCom= 1.00D+00 WtEn= 0.00D+00
 Coeff-Com: -0.596D-07 0.122D-06 0.294D-06-0.127D-06 0.166D-05-0.156D-05
 Coeff-Com: -0.120D-04-0.341D-04-0.438D-03-0.980D-03-0.361D-02-0.422D-03
 Coeff-Com:  0.353D-01 0.108D+00 0.254D+00 0.608D+00
 Coeff:     -0.596D-07 0.122D-06 0.294D-06-0.127D-06 0.166D-05-0.156D-05
 Coeff:     -0.120D-04-0.341D-04-0.438D-03-0.980D-03-0.361D-02-0.422D-03
 Coeff:      0.353D-01 0.108D+00 0.254D+00 0.608D+00
 Gap=     0.187 Goal=   None    Shift=    0.000
 RMSDP=1.88D-09 MaxDP=2.01D-07 DE=-2.91D-11 OVMax= 2.27D-08

 SCF Done:  E(RB3LYP) =  -1051.45748272     A.U. after   16 cycles
             Convg  =    0.1883D-08             -V/T =  2.0027
 KE= 1.048576537570D+03 PE=-4.326088781679D+03 EE= 1.299223515024D+03
 Leave Link  502 at Sat Jul 06 08:50:08 2019, MaxMem=  209715200 cpu:     306.0
 (Enter C:\G09W\l601.exe)
 Copying SCF densities to generalized density rwf, IOpCl= 0 IROHF=0.

 **********************************************************************

            Population analysis using the SCF density.

 **********************************************************************

 Orbital symmetries:
       Occupied  (A) (A) (A) (A) (A) (A) (A) (A) (A) (A) (A) (A)
                 (A) (A) (A) (A) (A) (A) (A) (A) (A) (A) (A) (A)
                 (A) (A) (A) (A) (A) (A) (A) (A) (A) (A) (A) (A)
                 (A) (A) (A) (A) (A) (A) (A) (A) (A) (A) (A) (A)
                 (A) (A) (A) (A) (A) (A)
       Virtual   (A) (A) (A) (A) (A) (A) (A) (A) (A) (A) (A) (A)
                 (A) (A) (A) (A) (A) (A) (A) (A) (A) (A) (A) (A)
                 (A) (A) (A) (A) (A) (A) (A) (A) (A) (A) (A) (A)
                 (A) (A) (A) (A) (A) (A) (A) (A) (A) (A) (A) (A)
                 (A) (A) (A) (A) (A) (A) (A) (A) (A) (A) (A) (A)
                 (A) (A) (A) (A) (A) (A) (A) (A) (A) (A) (A) (A)
                 (A) (A) (A) (A) (A) (A) (A) (A) (A) (A) (A) (A)
                 (A) (A) (A) (A) (A) (A) (A) (A) (A) (A) (A) (A)
                 (A) (A) (A) (A) (A) (A) (A) (A) (A) (A) (A) (A)
                 (A) (A) (A) (A) (A) (A) (A) (A) (A) (A) (A) (A)
                 (A) (A) (A) (A) (A) (A) (A) (A) (A) (A) (A) (A)
                 (A) (A) (A) (A) (A) (A) (A) (A) (A) (A) (A) (A)
                 (A) (A) (A) (A) (A) (A) (A) (A) (A) (A) (A) (A)
                 (A) (A) (A) (A) (A) (A) (A) (A) (A) (A) (A) (A)
                 (A) (A) (A) (A) (A) (A) (A) (A) (A) (A) (A) (A)
                 (A) (A) (A) (A) (A) (A) (A) (A) (A) (A) (A) (A)
                 (A) (A) (A) (A) (A) (A) (A) (A) (A) (A) (A) (A)
                 (A) (A) (A) (A) (A) (A) (A) (A) (A) (A) (A) (A)
                 (A) (A) (A) (A) (A) (A) (A) (A) (A) (A) (A) (A)
                 (A) (A) (A) (A) (A) (A) (A) (A) (A) (A) (A) (A)
                 (A) (A) (A) (A) (A) (A) (A) (A) (A) (A) (A) (A)
                 (A) (A) (A) (A) (A) (A) (A) (A) (A) (A) (A) (A)
                 (A) (A) (A) (A) (A) (A) (A) (A) (A) (A) (A) (A)
                 (A) (A) (A) (A) (A) (A) (A) (A) (A) (A) (A) (A)
                 (A) (A) (A) (A) (A) (A) (A) (A) (A) (A) (A) (A)
                 (A) (A) (A) (A) (A) (A) (A) (A) (A) (A) (A) (A)
                 (A) (A) (A) (A) (A)
 The electronic state is 1-A.
 Alpha  occ. eigenvalues -- -101.56680 -19.16983 -19.10005 -14.37364 -10.29599
 Alpha  occ. eigenvalues --  -10.25873 -10.25537 -10.24626 -10.22692 -10.20586
 Alpha  occ. eigenvalues --  -10.20570 -10.20453 -10.20443 -10.20283  -9.48113
 Alpha  occ. eigenvalues --   -7.24586  -7.23577  -7.23571  -1.12648  -1.04077
 Alpha  occ. eigenvalues --   -0.99574  -0.89909  -0.88145  -0.80836  -0.78625
 Alpha  occ. eigenvalues --   -0.76939  -0.74588  -0.65880  -0.64882  -0.62203
 Alpha  occ. eigenvalues --   -0.59654  -0.55826  -0.54510  -0.52559  -0.52341
 Alpha  occ. eigenvalues --   -0.50378  -0.49761  -0.47210  -0.45956  -0.44136
 Alpha  occ. eigenvalues --   -0.42559  -0.42314  -0.40931  -0.39979  -0.39628
 Alpha  occ. eigenvalues --   -0.38554  -0.38122  -0.34328  -0.32958  -0.30807
 Alpha  occ. eigenvalues --   -0.29151  -0.29104  -0.28075  -0.23684
 Alpha virt. eigenvalues --   -0.05017  -0.04624  -0.02559  -0.02333  -0.00882
 Alpha virt. eigenvalues --   -0.00444   0.00146   0.01667   0.01942   0.02191
 Alpha virt. eigenvalues --    0.02647   0.03790   0.04507   0.04977   0.06104
 Alpha virt. eigenvalues --    0.06688   0.07015   0.07399   0.07581   0.08764
 Alpha virt. eigenvalues --    0.08924   0.09088   0.09511   0.09611   0.10209
 Alpha virt. eigenvalues --    0.10415   0.10486   0.10898   0.10944   0.11319
 Alpha virt. eigenvalues --    0.11522   0.11979   0.12225   0.12668   0.12932
 Alpha virt. eigenvalues --    0.13958   0.14329   0.14752   0.15128   0.15518
 Alpha virt. eigenvalues --    0.15891   0.15980   0.16792   0.17244   0.17555
 Alpha virt. eigenvalues --    0.17805   0.18666   0.19099   0.19256   0.19605
 Alpha virt. eigenvalues --    0.20080   0.20781   0.21409   0.22243   0.22425
 Alpha virt. eigenvalues --    0.23334   0.24299   0.24455   0.24985   0.25106
 Alpha virt. eigenvalues --    0.26134   0.26394   0.26759   0.27160   0.27658
 Alpha virt. eigenvalues --    0.28430   0.28718   0.29140   0.29705   0.30031
 Alpha virt. eigenvalues --    0.30785   0.30977   0.31682   0.31934   0.32355
 Alpha virt. eigenvalues --    0.33378   0.34014   0.34561   0.34870   0.35953
 Alpha virt. eigenvalues --    0.36236   0.36590   0.38297   0.39477   0.40792
 Alpha virt. eigenvalues --    0.41979   0.42875   0.43672   0.46555   0.47326
 Alpha virt. eigenvalues --    0.47792   0.48196   0.50846   0.51786   0.53277
 Alpha virt. eigenvalues --    0.53511   0.53814   0.54472   0.54615   0.55275
 Alpha virt. eigenvalues --    0.55723   0.57084   0.58217   0.59239   0.60241
 Alpha virt. eigenvalues --    0.60908   0.61388   0.62863   0.64199   0.64935
 Alpha virt. eigenvalues --    0.66068   0.67171   0.68032   0.68899   0.69444
 Alpha virt. eigenvalues --    0.70729   0.71182   0.71886   0.73011   0.73694
 Alpha virt. eigenvalues --    0.75055   0.75576   0.77713   0.80606   0.81534
 Alpha virt. eigenvalues --    0.82693   0.82901   0.83957   0.84212   0.85601
 Alpha virt. eigenvalues --    0.85900   0.86294   0.86921   0.87523   0.88110
 Alpha virt. eigenvalues --    0.88700   0.90524   0.91144   0.93370   0.95687
 Alpha virt. eigenvalues --    0.95751   0.96740   0.97663   0.99333   1.00428
 Alpha virt. eigenvalues --    1.01053   1.02487   1.04711   1.05181   1.07134
 Alpha virt. eigenvalues --    1.07933   1.08898   1.11853   1.13094   1.14543
 Alpha virt. eigenvalues --    1.16365   1.18425   1.20724   1.22045   1.23787
 Alpha virt. eigenvalues --    1.25005   1.25611   1.26557   1.29181   1.30468
 Alpha virt. eigenvalues --    1.32045   1.37202   1.38918   1.41530   1.41996
 Alpha virt. eigenvalues --    1.44198   1.45310   1.48852   1.50910   1.52993
 Alpha virt. eigenvalues --    1.54706   1.54864   1.55143   1.56141   1.59785
 Alpha virt. eigenvalues --    1.60875   1.63076   1.64214   1.64815   1.65881
 Alpha virt. eigenvalues --    1.69897   1.70497   1.71243   1.72583   1.73311
 Alpha virt. eigenvalues --    1.75399   1.77216   1.79370   1.81337   1.81646
 Alpha virt. eigenvalues --    1.83469   1.86416   1.87024   1.88769   1.90502
 Alpha virt. eigenvalues --    1.91213   1.91993   1.93140   1.93280   1.95203
 Alpha virt. eigenvalues --    1.97065   1.99985   2.00883   2.02720   2.04865
 Alpha virt. eigenvalues --    2.05605   2.06596   2.08155   2.14290   2.18066
 Alpha virt. eigenvalues --    2.19242   2.20449   2.20961   2.26961   2.28931
 Alpha virt. eigenvalues --    2.31090   2.37709   2.38506   2.41161   2.43478
 Alpha virt. eigenvalues --    2.44369   2.45425   2.46656   2.51859   2.52799
 Alpha virt. eigenvalues --    2.54501   2.59044   2.62028   2.62642   2.63391
 Alpha virt. eigenvalues --    2.64003   2.65369   2.67516   2.69117   2.69523
 Alpha virt. eigenvalues --    2.71345   2.72395   2.73176   2.76513   2.78593
 Alpha virt. eigenvalues --    2.79057   2.80572   2.84624   2.85968   2.87673
 Alpha virt. eigenvalues --    2.89884   2.90382   2.92010   2.93357   2.95534
 Alpha virt. eigenvalues --    2.98589   2.99399   3.01081   3.02779   3.07579
 Alpha virt. eigenvalues --    3.09466   3.13035   3.14650   3.15396   3.19149
 Alpha virt. eigenvalues --    3.21317   3.24478   3.27017   3.34291   3.36448
 Alpha virt. eigenvalues --    3.42517   3.46127   3.47290   3.48649   3.52885
 Alpha virt. eigenvalues --    3.61111   3.66204   3.70144   3.77669   3.79793
 Alpha virt. eigenvalues --    3.91297   3.97440   3.99448   4.01785   4.04766
 Alpha virt. eigenvalues --    4.06132   4.12564   4.13454   4.15484   4.33857
 Alpha virt. eigenvalues --    4.83231   4.84508   5.02461   5.07278   5.09627
 Alpha virt. eigenvalues --    5.18947   5.44020   5.69855   5.91095   9.81098
 Alpha virt. eigenvalues --   23.59853  23.62596  23.86159  23.93781  23.95716
 Alpha virt. eigenvalues --   23.97039  24.08256  24.10257  24.19724  24.20407
 Alpha virt. eigenvalues --   25.84579  26.13481  26.68540  35.65464  49.91154
 Alpha virt. eigenvalues --   50.08983 215.80808
          Condensed to atoms (all electrons):
              1          2          3          4          5          6
     1  C    9.800641  -0.182270  -3.401587   0.345939  -0.548741   0.178163
     2  C   -0.182270  10.373429  -0.834420  -0.724984  -0.062749  -0.880069
     3  C   -3.401587  -0.834420   9.581071   0.102642  -0.411003   0.294770
     4  C    0.345939  -0.724984   0.102642   5.668443   0.444038  -0.069223
     5  C   -0.548741  -0.062749  -0.411003   0.444038   5.931917   0.501691
     6  C    0.178163  -0.880069   0.294770  -0.069223   0.501691   5.816328
     7  N   -0.108468  -0.297491  -0.162635   0.059727   0.077180   0.087864
     8  C   -0.403767   0.541901   0.231479  -0.007215  -0.023092  -0.082324
     9  C   -0.325835  -1.069211   0.280286   0.046019   0.067101   0.066019
    10  C    0.056269  -0.210602  -0.253936   0.007410   0.000888  -0.051967
    11  C    0.182067   0.249143  -0.113060  -0.021788  -0.006101   0.027031
    12  O   -0.002671   0.053590  -0.012775  -0.001875  -0.001073  -0.006114
    13  Cl  -0.104491  -0.342938   0.140262   0.019831   0.005106  -0.003597
    14  O    0.000156  -0.004740   0.001600   0.000143   0.000050   0.000217
    15  H    0.500540  -0.011320  -0.057450   0.013656   0.006548  -0.105530
    16  H   -0.072038  -0.081240   0.559284  -0.075911   0.009446   0.020900
    17  H    0.036195   0.035289  -0.072430   0.404460  -0.069446  -0.012538
    18  H   -0.001636   0.026089  -0.008626  -0.073690   0.460314  -0.070546
    19  H   -0.054886   0.013437   0.027304  -0.002217  -0.069965   0.405278
    20  H   -0.035146  -0.255920   0.026522   0.023976   0.019547   0.017210
    21  H    0.007256  -0.067291   0.003658   0.003665   0.015053   0.024083
    22  H   -0.016876   0.092531  -0.009763  -0.003255  -0.001806  -0.020035
              7          8          9         10         11         12
     1  C   -0.108468  -0.403767  -0.325835   0.056269   0.182067  -0.002671
     2  C   -0.297491   0.541901  -1.069211  -0.210602   0.249143   0.053590
     3  C   -0.162635   0.231479   0.280286  -0.253936  -0.113060  -0.012775
     4  C    0.059727  -0.007215   0.046019   0.007410  -0.021788  -0.001875
     5  C    0.077180  -0.023092   0.067101   0.000888  -0.006101  -0.001073
     6  C    0.087864  -0.082324   0.066019  -0.051967   0.027031  -0.006114
     7  N    7.351036   0.051661  -0.210169  -0.482512   0.277134  -0.016381
     8  C    0.051661  20.905419 -13.182414  -4.806420   4.643622   0.607220
     9  C   -0.210169 -13.182414  20.578362   4.369965  -5.374016  -0.756407
    10  C   -0.482512  -4.806420   4.369965   8.606237  -2.577897   0.235245
    11  C    0.277134   4.643622  -5.374016  -2.577897   9.679683   0.071057
    12  O   -0.016381   0.607220  -0.756407   0.235245   0.071057   8.165342
    13  Cl  -0.094988  -1.195373   0.928032   0.497480  -1.132625  -0.008889
    14  O   -0.000075  -0.234459   0.107217   0.058224   0.345743  -0.084695
    15  H   -0.013978  -0.005137  -0.010298  -0.010134  -0.001167   0.001379
    16  H   -0.028188  -0.025995  -0.005736   0.013518  -0.002984   0.000347
    17  H   -0.005637   0.004583  -0.004498  -0.003924   0.001216   0.000038
    18  H    0.000883  -0.004518   0.002704   0.001123  -0.000133  -0.000038
    19  H   -0.007024  -0.000733  -0.002938   0.001403   0.000756  -0.000005
    20  H    0.402177   0.068964  -0.037605   0.004415  -0.065896  -0.006401
    21  H    0.012889   0.123192  -0.040531   0.209342   0.035440  -0.066125
    22  H    0.002545  -0.089788  -0.027843   0.432704  -0.039451  -0.051301
             13         14         15         16         17         18
     1  C   -0.104491   0.000156   0.500540  -0.072038   0.036195  -0.001636
     2  C   -0.342938  -0.004740  -0.011320  -0.081240   0.035289   0.026089
     3  C    0.140262   0.001600  -0.057450   0.559284  -0.072430  -0.008626
     4  C    0.019831   0.000143   0.013656  -0.075911   0.404460  -0.073690
     5  C    0.005106   0.000050   0.006548   0.009446  -0.069446   0.460314
     6  C   -0.003597   0.000217  -0.105530   0.020900  -0.012538  -0.070546
     7  N   -0.094988  -0.000075  -0.013978  -0.028188  -0.005637   0.000883
     8  C   -1.195373  -0.234459  -0.005137  -0.025995   0.004583  -0.004518
     9  C    0.928032   0.107217  -0.010298  -0.005736  -0.004498   0.002704
    10  C    0.497480   0.058224  -0.010134   0.013518  -0.003924   0.001123
    11  C   -1.132625   0.345743  -0.001167  -0.002984   0.001216  -0.000133
    12  O   -0.008889  -0.084695   0.001379   0.000347   0.000038  -0.000038
    13  Cl  17.777805   0.051103   0.001310   0.002111  -0.000833   0.000043
    14  O    0.051103   8.082585   0.000106   0.000021  -0.000003   0.000001
    15  H    0.001310   0.000106   0.534485  -0.004547   0.002241   0.000229
    16  H    0.002111   0.000021  -0.004547   0.537524  -0.018556   0.000236
    17  H   -0.000833  -0.000003   0.002241  -0.018556   0.533486  -0.013659
    18  H    0.000043   0.000001   0.000229   0.000236  -0.013659   0.538949
    19  H   -0.000622  -0.000010  -0.017932   0.002488  -0.000989  -0.013818
    20  H    0.125158   0.000000   0.000050  -0.002172  -0.000837  -0.000149
    21  H    0.006108   0.003779  -0.001431  -0.002132   0.000394   0.000160
    22  H    0.009079   0.000236  -0.000059   0.002111  -0.001398  -0.000084
             19         20         21         22
     1  C   -0.054886  -0.035146   0.007256  -0.016876
     2  C    0.013437  -0.255920  -0.067291   0.092531
     3  C    0.027304   0.026522   0.003658  -0.009763
     4  C   -0.002217   0.023976   0.003665  -0.003255
     5  C   -0.069965   0.019547   0.015053  -0.001806
     6  C    0.405278   0.017210   0.024083  -0.020035
     7  N   -0.007024   0.402177   0.012889   0.002545
     8  C   -0.000733   0.068964   0.123192  -0.089788
     9  C   -0.002938  -0.037605  -0.040531  -0.027843
    10  C    0.001403   0.004415   0.209342   0.432704
    11  C    0.000756  -0.065896   0.035440  -0.039451
    12  O   -0.000005  -0.006401  -0.066125  -0.051301
    13  Cl  -0.000622   0.125158   0.006108   0.009079
    14  O   -0.000010   0.000000   0.003779   0.000236
    15  H   -0.017932   0.000050  -0.001431  -0.000059
    16  H    0.002488  -0.002172  -0.002132   0.002111
    17  H   -0.000989  -0.000837   0.000394  -0.001398
    18  H   -0.013818  -0.000149   0.000160  -0.000084
    19  H    0.534572  -0.001176  -0.002708   0.000727
    20  H   -0.001176   0.422958   0.006412  -0.004467
    21  H   -0.002708   0.006412   0.636624  -0.102189
    22  H    0.000727  -0.004467  -0.102189   0.623760
 Mulliken atomic charges:
              1
     1  C    0.151189
     2  C   -0.360165
     3  C    0.088809
     4  C   -0.159792
     5  C   -0.344904
     6  C   -0.137609
     7  N    0.104449
     8  C   -1.116805
     9  C    0.601796
    10  C   -0.096831
    11  C   -0.177775
    12  O   -0.119466
    13  Cl   0.320928
    14  O   -0.327198
    15  H    0.178438
    16  H    0.171514
    17  H    0.186846
    18  H    0.156167
    19  H    0.189055
    20  H    0.292380
    21  H    0.194352
    22  H    0.204622
 Sum of Mulliken atomic charges =   0.00000
 Mulliken charges with hydrogens summed into heavy atoms:
              1
     1  C    0.329627
     2  C   -0.360165
     3  C    0.260323
     4  C    0.027053
     5  C   -0.188738
     6  C    0.051446
     7  N    0.396830
     8  C   -1.116805
     9  C    0.601796
    10  C    0.302142
    11  C   -0.177775
    12  O   -0.119466
    13  Cl   0.320928
    14  O   -0.327198
 Sum of Mulliken charges with hydrogens summed into heavy atoms =   0.00000
 Electronic spatial extent (au):  <R**2>=           3728.1734
 Charge=              0.0000 electrons
 Dipole moment (field-independent basis, Debye):
    X=             -8.1765    Y=              1.5111    Z=              0.2285  Tot=              8.3181
 Quadrupole moment (field-independent basis, Debye-Ang):
   XX=           -103.5916   YY=            -90.0575   ZZ=            -83.0838
   XY=              8.7306   XZ=              2.2321   YZ=             -3.5376
 Traceless Quadrupole moment (field-independent basis, Debye-Ang):
   XX=            -11.3473   YY=              2.1868   ZZ=              9.1605
   XY=              8.7306   XZ=              2.2321   YZ=             -3.5376
 Octapole moment (field-independent basis, Debye-Ang**2):
  XXX=           -128.8375  YYY=             15.3341  ZZZ=             -1.5744  XYY=             -2.1410
  XXY=             18.7639  XXZ=              0.8667  XZZ=             -1.3906  YZZ=             -3.2825
  YYZ=              2.7987  XYZ=              6.0659
 Hexadecapole moment (field-independent basis, Debye-Ang**3):
 XXXX=          -4065.0414 YYYY=           -741.4006 ZZZZ=           -309.3935 XXXY=            182.4886
 XXXZ=             52.2591 YYYX=             40.1722 YYYZ=              2.1257 ZZZX=              0.4613
 ZZZY=            -11.0425 XXYY=           -847.1956 XXZZ=           -668.7326 YYZZ=           -174.2781
 XXYZ=            -41.3709 YYXZ=              5.5809 ZZXY=             -3.1257
 N-N= 9.268312463657D+02 E-N=-4.326088782042D+03  KE= 1.048576537570D+03
 No NMR shielding tensors so no spin-rotation constants.
 Leave Link  601 at Sat Jul 06 08:50:08 2019, MaxMem=  209715200 cpu:       0.0
 (Enter C:\G09W\l607.exe)
 ******************************Gaussian NBO Version 3.1******************************
             N A T U R A L   A T O M I C   O R B I T A L   A N D
          N A T U R A L   B O N D   O R B I T A L   A N A L Y S I S
 ******************************Gaussian NBO Version 3.1******************************
       /RESON  / : Allow strongly delocalized NBO set

 Analyzing the SCF density

 Job title: 8b.log                                                          

 Storage needed:    416998 in NPA,    555166 in NBO ( 209713709 available)


 NATURAL POPULATIONS:  Natural atomic orbital occupancies 
                                                          
   NAO  Atom  No  lang   Type(AO)    Occupancy      Energy
 ----------------------------------------------------------
     1    C    1  S      Cor( 1S)     1.99903     -10.05399
     2    C    1  S      Val( 2S)     0.94508      -0.17951
     3    C    1  S      Ryd( 4S)     0.00138       0.90906
     4    C    1  S      Ryd( 3S)     0.00009       0.59549
     5    C    1  S      Ryd( 5S)     0.00001      23.16883
     6    C    1  px     Val( 2p)     1.09906      -0.08468
     7    C    1  px     Ryd( 4p)     0.00430       0.98890
     8    C    1  px     Ryd( 3p)     0.00026       0.44978
     9    C    1  px     Ryd( 5p)     0.00012       3.00679
    10    C    1  py     Val( 2p)     1.01606      -0.12669
    11    C    1  py     Ryd( 4p)     0.00195       0.60429
    12    C    1  py     Ryd( 3p)     0.00031       0.35914
    13    C    1  py     Ryd( 5p)     0.00005       2.76795
    14    C    1  pz     Val( 2p)     1.12744      -0.08767
    15    C    1  pz     Ryd( 4p)     0.00465       0.98688
    16    C    1  pz     Ryd( 3p)     0.00022       0.46969
    17    C    1  pz     Ryd( 5p)     0.00008       2.99327
    18    C    1  dxy    Ryd( 3d)     0.00048       1.90146
    19    C    1  dxz    Ryd( 3d)     0.00078       2.35766
    20    C    1  dyz    Ryd( 3d)     0.00048       1.95823
    21    C    1  dx2y2  Ryd( 3d)     0.00052       2.08992
    22    C    1  dz2    Ryd( 3d)     0.00057       2.16727

    23    C    2  S      Cor( 1S)     1.99891     -10.10373
    24    C    2  S      Val( 2S)     0.83626      -0.14798
    25    C    2  S      Ryd( 4S)     0.00126       0.86331
    26    C    2  S      Ryd( 3S)     0.00007       0.73771
    27    C    2  S      Ryd( 5S)     0.00002      22.98089
    28    C    2  px     Val( 2p)     0.88493      -0.06100
    29    C    2  px     Ryd( 4p)     0.00653       1.24156
    30    C    2  px     Ryd( 3p)     0.00013       0.87501
    31    C    2  px     Ryd( 5p)     0.00011       2.80097
    32    C    2  py     Val( 2p)     1.04417      -0.13520
    33    C    2  py     Ryd( 3p)     0.00396       0.72448
    34    C    2  py     Ryd( 4p)     0.00012       0.72909
    35    C    2  py     Ryd( 5p)     0.00005       2.56128
    36    C    2  pz     Val( 2p)     1.08853      -0.10003
    37    C    2  pz     Ryd( 4p)     0.00303       0.97090
    38    C    2  pz     Ryd( 3p)     0.00028       0.78971
    39    C    2  pz     Ryd( 5p)     0.00018       2.72167
    40    C    2  dxy    Ryd( 3d)     0.00062       1.97138
    41    C    2  dxz    Ryd( 3d)     0.00147       2.43259
    42    C    2  dyz    Ryd( 3d)     0.00059       1.99022
    43    C    2  dx2y2  Ryd( 3d)     0.00087       2.05805
    44    C    2  dz2    Ryd( 3d)     0.00083       2.15703

    45    C    3  S      Cor( 1S)     1.99903     -10.05391
    46    C    3  S      Val( 2S)     0.94494      -0.17923
    47    C    3  S      Ryd( 4S)     0.00148       0.89430
    48    C    3  S      Ryd( 3S)     0.00010       0.53490
    49    C    3  S      Ryd( 5S)     0.00001      23.17539
    50    C    3  px     Val( 2p)     1.09113      -0.08322
    51    C    3  px     Ryd( 4p)     0.00403       0.98398
    52    C    3  px     Ryd( 3p)     0.00029       0.43485
    53    C    3  px     Ryd( 5p)     0.00011       2.99169
    54    C    3  py     Val( 2p)     1.03708      -0.12701
    55    C    3  py     Ryd( 4p)     0.00237       0.67971
    56    C    3  py     Ryd( 3p)     0.00033       0.38442
    57    C    3  py     Ryd( 5p)     0.00003       2.75323
    58    C    3  pz     Val( 2p)     1.11299      -0.08793
    59    C    3  pz     Ryd( 4p)     0.00448       0.97473
    60    C    3  pz     Ryd( 3p)     0.00024       0.41274
    61    C    3  pz     Ryd( 5p)     0.00009       2.96563
    62    C    3  dxy    Ryd( 3d)     0.00055       1.90599
    63    C    3  dxz    Ryd( 3d)     0.00070       2.37023
    64    C    3  dyz    Ryd( 3d)     0.00052       1.93286
    65    C    3  dx2y2  Ryd( 3d)     0.00045       2.09108
    66    C    3  dz2    Ryd( 3d)     0.00060       2.17227

    67    C    4  S      Cor( 1S)     1.99915     -10.05566
    68    C    4  S      Val( 2S)     0.94696      -0.18312
    69    C    4  S      Ryd( 3S)     0.00138       0.84229
    70    C    4  S      Ryd( 4S)     0.00012       0.93971
    71    C    4  S      Ryd( 5S)     0.00001      22.71551
    72    C    4  px     Val( 2p)     1.08440      -0.07551
    73    C    4  px     Ryd( 4p)     0.00470       0.86989
    74    C    4  px     Ryd( 3p)     0.00032       0.38714
    75    C    4  px     Ryd( 5p)     0.00012       3.02087
    76    C    4  py     Val( 2p)     1.00868      -0.12179
    77    C    4  py     Ryd( 4p)     0.00188       0.58321
    78    C    4  py     Ryd( 3p)     0.00028       0.30737
    79    C    4  py     Ryd( 5p)     0.00004       2.74639
    80    C    4  pz     Val( 2p)     1.13095      -0.08435
    81    C    4  pz     Ryd( 4p)     0.00577       0.96144
    82    C    4  pz     Ryd( 3p)     0.00019       0.43322
    83    C    4  pz     Ryd( 5p)     0.00006       2.98245
    84    C    4  dxy    Ryd( 3d)     0.00052       1.89792
    85    C    4  dxz    Ryd( 3d)     0.00072       2.32509
    86    C    4  dyz    Ryd( 3d)     0.00045       1.95608
    87    C    4  dx2y2  Ryd( 3d)     0.00049       2.08304
    88    C    4  dz2    Ryd( 3d)     0.00059       2.13537

    89    C    5  S      Cor( 1S)     1.99915     -10.05401
    90    C    5  S      Val( 2S)     0.94812      -0.18190
    91    C    5  S      Ryd( 3S)     0.00130       0.85223
    92    C    5  S      Ryd( 4S)     0.00008       1.31280
    93    C    5  S      Ryd( 5S)     0.00000      22.39379
    94    C    5  px     Val( 2p)     1.16345      -0.07769
    95    C    5  px     Ryd( 4p)     0.00622       1.05287
    96    C    5  px     Ryd( 3p)     0.00016       0.45050
    97    C    5  px     Ryd( 5p)     0.00006       3.04214
    98    C    5  py     Val( 2p)     1.01102      -0.12042
    99    C    5  py     Ryd( 4p)     0.00198       0.58970
   100    C    5  py     Ryd( 3p)     0.00029       0.30793
   101    C    5  py     Ryd( 5p)     0.00004       2.74087
   102    C    5  pz     Val( 2p)     1.05246      -0.08109
   103    C    5  pz     Ryd( 4p)     0.00394       0.74571
   104    C    5  pz     Ryd( 3p)     0.00049       0.34324
   105    C    5  pz     Ryd( 5p)     0.00013       2.97171
   106    C    5  dxy    Ryd( 3d)     0.00048       1.85647
   107    C    5  dxz    Ryd( 3d)     0.00061       2.40027
   108    C    5  dyz    Ryd( 3d)     0.00049       1.99410
   109    C    5  dx2y2  Ryd( 3d)     0.00056       1.99091
   110    C    5  dz2    Ryd( 3d)     0.00064       2.15926

   111    C    6  S      Cor( 1S)     1.99915     -10.05564
   112    C    6  S      Val( 2S)     0.94672      -0.18301
   113    C    6  S      Ryd( 4S)     0.00140       0.83988
   114    C    6  S      Ryd( 3S)     0.00012       0.79940
   115    C    6  S      Ryd( 5S)     0.00001      22.85925
   116    C    6  px     Val( 2p)     1.07572      -0.07579
   117    C    6  px     Ryd( 4p)     0.00453       0.84011
   118    C    6  px     Ryd( 3p)     0.00033       0.38151
   119    C    6  px     Ryd( 5p)     0.00013       3.02473
   120    C    6  py     Val( 2p)     1.02757      -0.12216
   121    C    6  py     Ryd( 4p)     0.00224       0.64240
   122    C    6  py     Ryd( 3p)     0.00029       0.32136
   123    C    6  py     Ryd( 5p)     0.00003       2.74884
   124    C    6  pz     Val( 2p)     1.12210      -0.08417
   125    C    6  pz     Ryd( 4p)     0.00562       0.94281
   126    C    6  pz     Ryd( 3p)     0.00023       0.41128
   127    C    6  pz     Ryd( 5p)     0.00007       2.98861
   128    C    6  dxy    Ryd( 3d)     0.00053       1.89853
   129    C    6  dxz    Ryd( 3d)     0.00068       2.35920
   130    C    6  dyz    Ryd( 3d)     0.00050       1.91836
   131    C    6  dx2y2  Ryd( 3d)     0.00049       2.06285
   132    C    6  dz2    Ryd( 3d)     0.00057       2.16107

   133    N    7  S      Cor( 1S)     1.99924     -14.19376
   134    N    7  S      Val( 2S)     1.20154      -0.53924
   135    N    7  S      Ryd( 4S)     0.00067       1.31185
   136    N    7  S      Ryd( 3S)     0.00011       1.01683
   137    N    7  S      Ryd( 5S)     0.00000      35.34190
   138    N    7  px     Val( 2p)     1.27952      -0.25880
   139    N    7  px     Ryd( 4p)     0.00262       0.88265
   140    N    7  px     Ryd( 3p)     0.00096       0.69112
   141    N    7  px     Ryd( 5p)     0.00006       4.05222
   142    N    7  py     Val( 2p)     1.37927      -0.26855
   143    N    7  py     Ryd( 4p)     0.00362       0.75450
   144    N    7  py     Ryd( 3p)     0.00100       0.51599
   145    N    7  py     Ryd( 5p)     0.00007       4.02824
   146    N    7  pz     Val( 2p)     1.72204      -0.28444
   147    N    7  pz     Ryd( 4p)     0.00968       0.52599
   148    N    7  pz     Ryd( 3p)     0.00092       0.51927
   149    N    7  pz     Ryd( 5p)     0.00001       3.86205
   150    N    7  dxy    Ryd( 3d)     0.00079       2.87668
   151    N    7  dxz    Ryd( 3d)     0.00045       2.34476
   152    N    7  dyz    Ryd( 3d)     0.00016       2.21156
   153    N    7  dx2y2  Ryd( 3d)     0.00079       2.92180
   154    N    7  dz2    Ryd( 3d)     0.00064       2.61390

   155    C    8  S      Cor( 1S)     1.99874     -10.10724
   156    C    8  S      Val( 2S)     0.82821      -0.14642
   157    C    8  S      Ryd( 3S)     0.00168       0.78581
   158    C    8  S      Ryd( 4S)     0.00014       2.65387
   159    C    8  S      Ryd( 5S)     0.00002      21.00232
   160    C    8  px     Val( 2p)     1.01757      -0.08619
   161    C    8  px     Ryd( 4p)     0.00367       1.05202
   162    C    8  px     Ryd( 3p)     0.00021       0.67775
   163    C    8  px     Ryd( 5p)     0.00023       3.19101
   164    C    8  py     Val( 2p)     0.99360      -0.09214
   165    C    8  py     Ryd( 4p)     0.00688       1.10865
   166    C    8  py     Ryd( 3p)     0.00014       0.56874
   167    C    8  py     Ryd( 5p)     0.00012       2.92080
   168    C    8  pz     Val( 2p)     0.93883      -0.14303
   169    C    8  pz     Ryd( 4p)     0.00150       0.60821
   170    C    8  pz     Ryd( 3p)     0.00085       0.36027
   171    C    8  pz     Ryd( 5p)     0.00003       2.71365
   172    C    8  dxy    Ryd( 3d)     0.00093       2.45681
   173    C    8  dxz    Ryd( 3d)     0.00247       1.68829
   174    C    8  dyz    Ryd( 3d)     0.00089       1.70864
   175    C    8  dx2y2  Ryd( 3d)     0.00086       2.64358
   176    C    8  dz2    Ryd( 3d)     0.00051       2.05656

   177    C    9  S      Cor( 1S)     1.99823     -10.09976
   178    C    9  S      Val( 2S)     0.94104      -0.21816
   179    C    9  S      Ryd( 3S)     0.00207       0.42931
   180    C    9  S      Ryd( 4S)     0.00114       1.01552
   181    C    9  S      Ryd( 5S)     0.00002      23.24016
   182    C    9  px     Val( 2p)     1.07134      -0.11929
   183    C    9  px     Ryd( 4p)     0.00624       0.93584
   184    C    9  px     Ryd( 3p)     0.00048       0.78442
   185    C    9  px     Ryd( 5p)     0.00034       2.86519
   186    C    9  py     Val( 2p)     0.99265      -0.16127
   187    C    9  py     Ryd( 4p)     0.00548       1.11455
   188    C    9  py     Ryd( 3p)     0.00033       0.84225
   189    C    9  py     Ryd( 5p)     0.00036       2.65876
   190    C    9  pz     Val( 2p)     1.23160      -0.16155
   191    C    9  pz     Ryd( 4p)     0.00165       0.62746
   192    C    9  pz     Ryd( 3p)     0.00072       0.48207
   193    C    9  pz     Ryd( 5p)     0.00003       2.50340
   194    C    9  dxy    Ryd( 3d)     0.00152       2.31670
   195    C    9  dxz    Ryd( 3d)     0.00090       1.64271
   196    C    9  dyz    Ryd( 3d)     0.00135       1.58229
   197    C    9  dx2y2  Ryd( 3d)     0.00144       2.40990
   198    C    9  dz2    Ryd( 3d)     0.00086       2.08950

   199    C   10  S      Cor( 1S)     1.99911     -10.12816
   200    C   10  S      Val( 2S)     1.00098      -0.25964
   201    C   10  S      Ryd( 4S)     0.00229       1.05425
   202    C   10  S      Ryd( 3S)     0.00008       0.73187
   203    C   10  S      Ryd( 5S)     0.00001      23.24227
   204    C   10  px     Val( 2p)     0.82094      -0.10852
   205    C   10  px     Ryd( 3p)     0.00355       0.70666
   206    C   10  px     Ryd( 4p)     0.00016       0.81591
   207    C   10  px     Ryd( 5p)     0.00010       2.55475
   208    C   10  py     Val( 2p)     1.00265      -0.11997
   209    C   10  py     Ryd( 3p)     0.00329       0.72599
   210    C   10  py     Ryd( 4p)     0.00017       0.81720
   211    C   10  py     Ryd( 5p)     0.00019       2.32666
   212    C   10  pz     Val( 2p)     1.19512      -0.13415
   213    C   10  pz     Ryd( 3p)     0.00086       0.72016
   214    C   10  pz     Ryd( 4p)     0.00025       0.85126
   215    C   10  pz     Ryd( 5p)     0.00007       2.49424
   216    C   10  dxy    Ryd( 3d)     0.00153       2.02694
   217    C   10  dxz    Ryd( 3d)     0.00206       2.05796
   218    C   10  dyz    Ryd( 3d)     0.00090       1.89793
   219    C   10  dx2y2  Ryd( 3d)     0.00191       2.27311
   220    C   10  dz2    Ryd( 3d)     0.00121       2.12849

   221    C   11  S      Cor( 1S)     1.99916     -10.17211
   222    C   11  S      Val( 2S)     0.74260      -0.10642
   223    C   11  S      Ryd( 4S)     0.00953       0.71055
   224    C   11  S      Ryd( 3S)     0.00177       0.67725
   225    C   11  S      Ryd( 5S)     0.00009      22.32253
   226    C   11  px     Val( 2p)     0.78797      -0.00477
   227    C   11  px     Ryd( 4p)     0.01623       1.29765
   228    C   11  px     Ryd( 3p)     0.00042       0.65152
   229    C   11  px     Ryd( 5p)     0.00015       2.42663
   230    C   11  py     Val( 2p)     0.85581      -0.04936
   231    C   11  py     Ryd( 4p)     0.00810       1.21509
   232    C   11  py     Ryd( 3p)     0.00048       0.50402
   233    C   11  py     Ryd( 5p)     0.00024       2.25496
   234    C   11  pz     Val( 2p)     0.80770      -0.12181
   235    C   11  pz     Ryd( 4p)     0.00160       0.78977
   236    C   11  pz     Ryd( 3p)     0.00050       0.40549
   237    C   11  pz     Ryd( 5p)     0.00015       2.37949
   238    C   11  dxy    Ryd( 3d)     0.00579       2.65875
   239    C   11  dxz    Ryd( 3d)     0.00571       1.68907
   240    C   11  dyz    Ryd( 3d)     0.00156       1.60005
   241    C   11  dx2y2  Ryd( 3d)     0.00250       2.53133
   242    C   11  dz2    Ryd( 3d)     0.00077       2.01691

   243    O   12  S      Cor( 1S)     1.99972     -18.96200
   244    O   12  S      Val( 2S)     1.61710      -0.89178
   245    O   12  S      Ryd( 3S)     0.00297       1.03327
   246    O   12  S      Ryd( 4S)     0.00022       1.20012
   247    O   12  S      Ryd( 5S)     0.00000      49.66517
   248    O   12  px     Val( 2p)     1.36759      -0.31773
   249    O   12  px     Ryd( 3p)     0.00237       0.92150
   250    O   12  px     Ryd( 4p)     0.00053       0.93554
   251    O   12  px     Ryd( 5p)     0.00006       5.25099
   252    O   12  py     Val( 2p)     1.72103      -0.35224
   253    O   12  py     Ryd( 3p)     0.00296       0.65211
   254    O   12  py     Ryd( 4p)     0.00064       0.87431
   255    O   12  py     Ryd( 5p)     0.00014       5.10880
   256    O   12  pz     Val( 2p)     1.81768      -0.33180
   257    O   12  pz     Ryd( 3p)     0.00177       0.51650
   258    O   12  pz     Ryd( 4p)     0.00070       0.81049
   259    O   12  pz     Ryd( 5p)     0.00000       4.92334
[...]
   106. RY*(   1) C   4                  0.00611     1.08047   
   107. RY*(   2) C   4                  0.00227     1.26181   
   108. RY*(   3) C   4                  0.00068     1.49801   
   109. RY*(   4) C   4                  0.00065     0.62566   
   110. RY*(   5) C   4                  0.00038     1.09883   
   111. RY*(   6) C   4                  0.00023     1.08887   
   112. RY*(   7) C   4                  0.00010     3.25958   
   113. RY*(   8) C   4                  0.00007     1.96227   
   114. RY*(   9) C   4                  0.00004     1.95810   
   115. RY*(  10) C   4                  0.00002     2.48286   
   116. RY*(  11) C   4                  0.00001     0.45027   
   117. RY*(  12) C   4                  0.00000     2.80056   
   118. RY*(  13) C   4                  0.00000    21.00525   
   119. RY*(  14) C   4                  0.00001     0.98903   
   120. RY*(  15) C   4                  0.00001     1.74124   
   121. RY*(  16) C   4                  0.00000     2.23020   
   122. RY*(  17) C   4                  0.00000     1.59329   
   123. RY*(   1) C   5                  0.00591     1.12693   
   124. RY*(   2) C   5                  0.00215     1.25818   
   125. RY*(   3) C   5                  0.00112     0.44376   
   126. RY*(   4) C   5                  0.00052     1.63619   
   127. RY*(   5) C   5                  0.00036     0.83987   
   128. RY*(   6) C   5                  0.00029     1.14596   
   129. RY*(   7) C   5                  0.00011     2.51953   
   130. RY*(   8) C   5                  0.00007     3.02253   
   131. RY*(   9) C   5                  0.00003     1.89118   
   132. RY*(  10) C   5                  0.00003     1.37332   
   133. RY*(  11) C   5                  0.00000     0.38508   
   134. RY*(  12) C   5                  0.00000     2.64965   
   135. RY*(  13) C   5                  0.00000     2.28785   
   136. RY*(  14) C   5                  0.00000     1.56948   
   137. RY*(  15) C   5                  0.00001     1.77016   
   138. RY*(  16) C   5                  0.00000    21.57705   
   139. RY*(  17) C   5                  0.00000     1.64139   
   140. RY*(   1) C   6                  0.00604     1.07814   
   141. RY*(   2) C   6                  0.00223     1.25559   
   142. RY*(   3) C   6                  0.00074     0.93432   
   143. RY*(   4) C   6                  0.00065     1.20310   
   144. RY*(   5) C   6                  0.00040     1.01395   
   145. RY*(   6) C   6                  0.00018     1.30568   
   146. RY*(   7) C   6                  0.00011     3.33821   
   147. RY*(   8) C   6                  0.00008     1.61361   
   148. RY*(   9) C   6                  0.00005     2.36431   
   149. RY*(  10) C   6                  0.00003     1.11392   
   150. RY*(  11) C   6                  0.00002     3.72148   
   151. RY*(  12) C   6                  0.00002     1.21966   
   152. RY*(  13) C   6                  0.00000    18.30593   
   153. RY*(  14) C   6                  0.00000     3.07931   
   154. RY*(  15) C   6                  0.00000     1.46674   
   155. RY*(  16) C   6                  0.00000     2.57823   
   156. RY*(  17) C   6                  0.00000     1.57877   
   157. RY*(   1) N   7                  0.00643     0.81493   
   158. RY*(   2) N   7                  0.00421     0.78435   
   159. RY*(   3) N   7                  0.00208     0.62759   
   160. RY*(   4) N   7                  0.00097     0.83844   
   161. RY*(   5) N   7                  0.00075     1.36791   
   162. RY*(   6) N   7                  0.00052     1.34269   
   163. RY*(   7) N   7                  0.00038     1.61558   
   164. RY*(   8) N   7                  0.00026     1.15802   
   165. RY*(   9) N   7                  0.00010     2.24316   
   166. RY*(  10) N   7                  0.00005     2.74931   
   167. RY*(  11) N   7                  0.00006     1.84236   
   168. RY*(  12) N   7                  0.00003     3.90315   
   169. RY*(  13) N   7                  0.00002     2.30452   
   170. RY*(  14) N   7                  0.00000    35.18318   
   171. RY*(  15) N   7                  0.00001     2.11758   
   172. RY*(  16) N   7                  0.00000     3.82516   
   173. RY*(  17) N   7                  0.00000     3.82395   
   174. RY*(   1) C   8                  0.00606     1.16882   
   175. RY*(   2) C   8                  0.00360     1.31794   
   176. RY*(   3) C   8                  0.00294     1.27087   
   177. RY*(   4) C   8                  0.00124     0.92320   
   178. RY*(   5) C   8                  0.00078     1.08399   
   179. RY*(   6) C   8                  0.00040     1.72654   
   180. RY*(   7) C   8                  0.00032     1.75177   
   181. RY*(   8) C   8                  0.00028     1.99367   
   182. RY*(   9) C   8                  0.00022     1.78987   
   183. RY*(  10) C   8                  0.00022     2.59859   
   184. RY*(  11) C   8                  0.00009     3.03622   
   185. RY*(  12) C   8                  0.00006     1.24565   
   186. RY*(  13) C   8                  0.00006     3.51427   
   187. RY*(  14) C   8                  0.00003     2.82640   
   188. RY*(  15) C   8                  0.00001     2.71272   
   189. RY*(  16) C   8                  0.00001     2.23742   
   190. RY*(  17) C   8                  0.00001    16.53306   
   191. RY*(   1) C   9                  0.00678     0.91664   
   192. RY*(   2) C   9                  0.00439     1.17955   
   193. RY*(   3) C   9                  0.00211     1.24595   
   194. RY*(   4) C   9                  0.00108     1.17961   
   195. RY*(   5) C   9                  0.00080     1.56811   
   196. RY*(   6) C   9                  0.00067     0.89301   
   197. RY*(   7) C   9                  0.00040     1.48023   
   198. RY*(   8) C   9                  0.00035     1.77063   
   199. RY*(   9) C   9                  0.00018     2.89496   
   200. RY*(  10) C   9                  0.00013     0.74547   
   201. RY*(  11) C   9                  0.00008     1.96346   
   202. RY*(  12) C   9                  0.00004     1.40897   
   203. RY*(  13) C   9                  0.00004     0.76057   
   204. RY*(  14) C   9                  0.00002     6.02330   
   205. RY*(  15) C   9                  0.00000     2.68048   
   206. RY*(  16) C   9                  0.00001     2.45592   
   207. RY*(  17) C   9                  0.00001    18.09360   
   208. RY*(   1) C  10                  0.00432     1.00126   
   209. RY*(   2) C  10                  0.00195     1.20915   
   210. RY*(   3) C  10                  0.00193     1.35567   
   211. RY*(   4) C  10                  0.00077     1.42812   
   212. RY*(   5) C  10                  0.00055     1.06524   
   213. RY*(   6) C  10                  0.00052     1.60080   
   214. RY*(   7) C  10                  0.00031     0.95068   
   215. RY*(   8) C  10                  0.00018     1.46410   
   216. RY*(   9) C  10                  0.00013     2.46854   
   217. RY*(  10) C  10                  0.00006     2.41978   
   218. RY*(  11) C  10                  0.00005     1.24399   
   219. RY*(  12) C  10                  0.00005     1.09399   
   220. RY*(  13) C  10                  0.00003     2.12645   
   221. RY*(  14) C  10                  0.00003     0.88922   
   222. RY*(  15) C  10                  0.00000    22.38768   
   223. RY*(  16) C  10                  0.00000     3.12578   
   224. RY*(  17) C  10                  0.00001     1.48373   
   225. RY*(   1) C  11                  0.01488     1.14132   
   226. RY*(   2) C  11                  0.01162     1.60891   
   227. RY*(   3) C  11                  0.00701     1.59926   
   228. RY*(   4) C  11                  0.00373     1.80532   
   229. RY*(   5) C  11                  0.00238     1.65949   
   230. RY*(   6) C  11                  0.00154     1.41616   
   231. RY*(   7) C  11                  0.00085     1.51589   
   232. RY*(   8) C  11                  0.00041     0.68461   
   233. RY*(   9) C  11                  0.00018     1.86727   
   234. RY*(  10) C  11                  0.00011     3.73495   
   235. RY*(  11) C  11                  0.00004     1.92982   
   236. RY*(  12) C  11                  0.00001     2.66618   
   237. RY*(  13) C  11                  0.00002     2.68865   
   238. RY*(  14) C  11                  0.00001     0.83667   
   239. RY*(  15) C  11                  0.00001    18.42315   
   240. RY*(  16) C  11                  0.00001     2.22864   
   241. RY*(  17) C  11                  0.00001     0.42084   
   242. RY*(   1) O  12                  0.00388     0.46418   
   243. RY*(   2) O  12                  0.00214     0.91578   
   244. RY*(   3) O  12                  0.00132     1.03081   
   245. RY*(   4) O  12                  0.00071     1.24610   
   246. RY*(   5) O  12                  0.00053     1.12885   
   247. RY*(   6) O  12                  0.00019     1.36513   
   248. RY*(   7) O  12                  0.00014     2.76141   
   249. RY*(   8) O  12                  0.00004     3.86458   
   250. RY*(   9) O  12                  0.00005     1.33051   
   251. RY*(  10) O  12                  0.00005     1.40329   
   252. RY*(  11) O  12                  0.00001     4.21198   
   253. RY*(  12) O  12                  0.00001     2.37968   
   254. RY*(  13) O  12                  0.00002     3.13360   
   255. RY*(  14) O  12                  0.00001     3.17486   
   256. RY*(  15) O  12                  0.00000     4.88832   
   257. RY*(  16) O  12                  0.00000     4.69244   
   258. RY*(  17) O  12                  0.00000    49.34752   
   259. RY*(   1)Cl  13                  0.00529     0.58717   
   260. RY*(   2)Cl  13                  0.00259     0.59302   
   261. RY*(   3)Cl  13                  0.00075     0.66711   
   262. RY*(   4)Cl  13                  0.00037     0.43244   
   263. RY*(   5)Cl  13                  0.00009     0.46158   
   264. RY*(   6)Cl  13                  0.00009     1.96573   
   265. RY*(   7)Cl  13                  0.00007     0.89079   
   266. RY*(   8)Cl  13                  0.00004     0.95286   
   267. RY*(   9)Cl  13                  0.00004     1.15028   
   268. RY*(  10)Cl  13                  0.00003     1.00495   
   269. RY*(  11)Cl  13                  0.00000     1.70322   
   270. RY*(  12)Cl  13                  0.00001     1.11498   
   271. RY*(  13)Cl  13                  0.00000     2.75645   
   272. RY*(  14)Cl  13                  0.00001     1.47240   
   273. RY*(  15)Cl  13                  0.00000     3.04994   
   274. RY*(  16)Cl  13                  0.00000    24.87651   
   275. RY*(  17)Cl  13                  0.00000    24.91199   
   276. RY*(  18)Cl  13                  0.00000   208.06626   
   277. RY*(  19)Cl  13                  0.00000    16.58464   
   278. RY*(  20)Cl  13                  0.00000    24.71091   
   279. RY*(  21)Cl  13                  0.00001     1.40359   
   280. RY*(   1) O  14                  0.00270     0.83788   
   281. RY*(   2) O  14                  0.00121     0.62870   
   282. RY*(   3) O  14                  0.00089     1.16062   
   283. RY*(   4) O  14                  0.00017     1.04175   
   284. RY*(   5) O  14                  0.00010     5.03078   
   285. RY*(   6) O  14                  0.00006     1.72917   
   286. RY*(   7) O  14                  0.00003     1.40919   
   287. RY*(   8) O  14                  0.00003     1.14285   
   288. RY*(   9) O  14                  0.00000     4.13641   
   289. RY*(  10) O  14                  0.00000     3.57967   
   290. RY*(  11) O  14                  0.00000    49.35956   
   291. RY*(  12) O  14                  0.00000     4.95286   
   292. RY*(  13) O  14                  0.00001     3.18067   
   293. RY*(  14) O  14                  0.00000     3.12064   
   294. RY*(  15) O  14                  0.00001     2.36701   
   295. RY*(  16) O  14                  0.00000     1.84245   
   296. RY*(  17) O  14                  0.00000     2.94818   
   297. RY*(   1) H  15                  0.00190     0.52650   
   298. RY*(   2) H  15                  0.00026     2.29067   
   299. RY*(   3) H  15                  0.00024     1.40784   
   300. RY*(   4) H  15                  0.00011     1.91368   
   301. RY*(   5) H  15                  0.00007     0.68730   
   302. RY*(   6) H  15                  0.00004     2.59789   
   303. RY*(   1) H  16                  0.00091     0.79902   
   304. RY*(   2) H  16                  0.00022     1.68602   
   305. RY*(   3) H  16                  0.00019     1.84108   
   306. RY*(   4) H  16                  0.00011     1.79511   
   307. RY*(   5) H  16                  0.00009     0.64855   
   308. RY*(   6) H  16                  0.00004     2.49247   
   309. RY*(   1) H  17                  0.00073     0.66418   
   310. RY*(   2) H  17                  0.00020     2.31670   
   311. RY*(   3) H  17                  0.00019     1.58091   
   312. RY*(   4) H  17                  0.00012     1.95098   
   313. RY*(   5) H  17                  0.00003     2.45661   
   314. RY*(   6) H  17                  0.00003     0.16439   
   315. RY*(   1) H  18                  0.00072     0.68506   
   316. RY*(   2) H  18                  0.00020     2.30668   
   317. RY*(   3) H  18                  0.00020     1.58155   
   318. RY*(   4) H  18                  0.00011     1.95771   
   319. RY*(   5) H  18                  0.00003     2.33975   
   320. RY*(   6) H  18                  0.00002     0.28557   
   321. RY*(   1) H  19                  0.00074     0.65363   
   322. RY*(   2) H  19                  0.00020     2.26620   
   323. RY*(   3) H  19                  0.00019     1.61588   
   324. RY*(   4) H  19                  0.00012     1.95042   
   325. RY*(   5) H  19                  0.00004     2.46462   
   326. RY*(   6) H  19                  0.00002     0.19952   
   327. RY*(   1) H  20                  0.00193     0.64445   
   328. RY*(   2) H  20                  0.00064     1.64152   
   329. RY*(   3) H  20                  0.00047     1.33389   
   330. RY*(   4) H  20                  0.00020     1.87018   
   331. RY*(   5) H  20                  0.00013     1.47802   
   332. RY*(   6) H  20                  0.00005     2.49686   
   333. RY*(   1) H  21                  0.00103     0.70309   
   334. RY*(   2) H  21                  0.00031     1.72859   
   335. RY*(   3) H  21                  0.00015     2.05312   
   336. RY*(   4) H  21                  0.00012     2.39834   
   337. RY*(   5) H  21                  0.00008     0.40607   
   338. RY*(   6) H  21                  0.00008     2.06585   
   339. RY*(   1) H  22                  0.00134     0.56913   
   340. RY*(   2) H  22                  0.00032     1.84176   
   341. RY*(   3) H  22                  0.00014     2.29313   
   342. RY*(   4) H  22                  0.00010     2.03548   
   343. RY*(   5) H  22                  0.00010     1.42713   
   344. RY*(   6) H  22                  0.00007     1.20818   
   345. BD*(   1) C   1 - C   2          0.02507     0.53556   
   346. BD*(   2) C   1 - C   2          0.39844    -0.00292  352(v),357(v),57(g),363(r)
                                                    75(g),91(v),76(g)
   347. BD*(   1) C   1 - C   6          0.01453     0.55491   
   348. BD*(   1) C   1 - H  15          0.01442     0.41804   
   349. BD*(   1) C   2 - C   3          0.02264     0.53241   
   350. BD*(   1) C   2 - N   7          0.02918     0.38361   
   351. BD*(   1) C   3 - C   4          0.01410     0.55963   
   352. BD*(   2) C   3 - C   4          0.32816     0.00570  357(v),346(v),109(g),91(g)
   353. BD*(   1) C   3 - H  16          0.01305     0.40893   
   354. BD*(   1) C   4 - C   5          0.01594     0.55727   
   355. BD*(   1) C   4 - H  17          0.01304     0.42524   
   356. BD*(   1) C   5 - C   6          0.01576     0.56011   
   357. BD*(   2) C   5 - C   6          0.33229     0.00947  352(v),346(v),125(g),142(g)
                                                    133(g)
   358. BD*(   1) C   5 - H  18          0.01333     0.42864   
   359. BD*(   1) C   6 - H  19          0.01299     0.42439   
   360. BD*(   1) N   7 - C   8          0.02758     0.44716   
   361. BD*(   1) N   7 - H  20          0.02132     0.35529   
   362. BD*(   1) C   8 - C   9          0.02588     0.58207   
   363. BD*(   2) C   8 - C   9          0.31157    -0.00766  372(v),368(v),193(g),369(v)
                                                    346(r),259(v)
   364. BD*(   1) C   8 - C  10          0.02964     0.35305   
   365. BD*(   1) C   9 - C  11          0.08123     0.43072   
   366. BD*(   1) C   9 -Cl  13          0.02789     0.14310   
   367. BD*(   1) C  10 - O  12          0.01517     0.25532   
   368. BD*(   1) C  10 - H  21          0.02292     0.35663   
   369. BD*(   1) C  10 - H  22          0.02236     0.35718   
   370. BD*(   1) C  11 - O  12          0.12081     0.31008  367(g),364(v),226(g),366(v)
                                                    362(v),231(g),234(g)
   371. BD*(   1) C  11 - O  14          0.01268     0.63824   
   372. BD*(   2) C  11 - O  14          0.28701     0.01235  363(v),227(g),281(g),232(g)
                                                    293(g)
       -------------------------------
              Total Lewis  105.52074  ( 97.7044%)
        Valence non-Lewis    2.26897  (  2.1009%)
        Rydberg non-Lewis    0.21029  (  0.1947%)
       -------------------------------
            Total unit  1  108.00000  (100.0000%)
           Charge unit  1    0.00000
 Leave Link  607 at Sat Jul 06 10:35:52 2019, MaxMem=  209715200 cpu:       3.0
 (Enter C:\G09W\l9999.exe)
 1|1|UNPC-CCSC-2005544|FOpt|RB3LYP|6-311++G(d,p)|C10H8Cl1N1O2|EDUARDO.M
 ELO|06-Jul-2019|0||#p opt b3lyp/6-311++g(d,p) pop=nbo geom=connectivit
 y||8b.log||0,1|C,-2.2697466702,-0.5981465026,0.7587074168|C,-1.7360667
 846,0.3747240556,-0.0933509824|C,-2.598426339,1.1010632775,-0.92618241
 75|C,-3.9653024733,0.8498186312,-0.9138604881|C,-4.4942908452,-0.13725
 20166,-0.0828502375|C,-3.639182801,-0.8553408958,0.7488936033|N,-0.361
 4469848,0.6999801587,-0.1252409769|C,0.7272329749,-0.1005491213,0.0243
 048807|C,2.020728077,0.2589466419,-0.1483627288|C,0.7217644681,-1.5686
 331921,0.3732599699|C,2.9037517498,-0.8915451523,0.0245582966|O,2.0897
 162374,-1.9752224322,0.3240495602|Cl,2.5894631665,1.8326566292,-0.5827
 342544|O,4.0937753191,-0.9895506155,-0.061249204|H,-1.6369376935,-1.13
 38195629,1.4520402068|H,-2.1905897019,1.8563337537,-1.590022611|H,-4.6
 168247958,1.4214223064,-1.5647395021|H,-5.5587490808,-0.3379918528,-0.
 0789307512|H,-4.0378039424,-1.6129038839,1.4139243031|H,-0.1463459661,
 1.6223279801,-0.4822837849|H,0.3492650714,-1.7589329484,1.3821905328|H
 ,0.1401620146,-2.1611002578,-0.3388578313||Version=IA32W-G09RevA.02|St
 ate=1-A|HF=-1051.4621863|RMSD=6.897e-009|RMSF=7.996e-006|Dipole=-2.928
 0429,0.506229,0.0006424|Quadrupole=-9.6587216,4.3627307,5.2959909,5.49
 80082,0.4910466,-3.6094513|PG=C01 [X(C10H8Cl1N1O2)]||@


 IT IS BETTER TO THINK YOU ARE HALF DRY THAN TO KNOW YOU
 ARE ALL WET.  -- SNOOPY
 Job cpu time:  0 days  1 hours 50 minutes 57.0 seconds.
 File lengths (MBytes):  RWF=     88 Int=      0 D2E=      0 Chk=      9 Scr=      1
 Normal termination of Gaussian 09 at Sat Jul 06 10:35:53 2019.
