 Entering Link 1 = C:\G09W\l1.exe PID=      6132.
  
 Copyright (c) 1988,1990,1992,1993,1995,1998,2003,2009, Gaussian, Inc.
                  All Rights Reserved.
  
 This is part of the Gaussian(R) 09 program.  It is based on
 the Gaussian(R) 03 system (copyright 2003, Gaussian, Inc.),
 the Gaussian(R) 98 system (copyright 1998, Gaussian, Inc.),
 the Gaussian(R) 94 system (copyright 1995, Gaussian, Inc.),
 the Gaussian 92(TM) system (copyright 1992, Gaussian, Inc.),
 the Gaussian 90(TM) system (copyright 1990, Gaussian, Inc.),
 the Gaussian 88(TM) system (copyright 1988, Gaussian, Inc.),
 the Gaussian 86(TM) system (copyright 1986, Carnegie Mellon
 University), and the Gaussian 82(TM) system (copyright 1983,
 Carnegie Mellon University). Gaussian is a federally registered
 trademark of Gaussian, Inc.
  
 This software contains proprietary and confidential information,
 including trade secrets, belonging to Gaussian, Inc.
  
 This software is provided under written license and may be
 used, copied, transmitted, or stored only in accord with that
 written license.
  
 The following legend is applicable only to US Government
 contracts under FAR:
  
                    RESTRICTED RIGHTS LEGEND
  
 Use, reproduction and disclosure by the US Government is
 subject to restrictions as set forth in subparagraphs (a)
 and (c) of the Commercial Computer Software - Restricted
 Rights clause in FAR 52.227-19.
  
 Gaussian, Inc.
 340 Quinnipiac St., Bldg. 40, Wallingford CT 06492
  
  
 ---------------------------------------------------------------
 Warning -- This program may not be used in any manner that
 competes with the business of Gaussian, Inc. or will provide
 assistance to any competitor of Gaussian, Inc.  The licensee
 of this program is prohibited from giving any competitor of
 Gaussian, Inc. access to this program.  By using this program,
 the user acknowledges that Gaussian, Inc. is engaged in the
 business of creating and licensing software in the field of
 computational chemistry and represents and warrants to the
 licensee that it is not a competitor of Gaussian, Inc. and that
 it will not use this program in any manner prohibited above.
 ---------------------------------------------------------------
  

 Cite this work as:
 Gaussian 09, Revision A.02,
 M. J. Frisch, G. W. Trucks, H. B. Schlegel, G. E. Scuseria, 
 M. A. Robb, J. R. Cheeseman, G. Scalmani, V. Barone, B. Mennucci, 
 G. A. Petersson, H. Nakatsuji, M. Caricato, X. Li, H. P. Hratchian, 
 A. F. Izmaylov, J. Bloino, G. Zheng, J. L. Sonnenberg, M. Hada, 
 M. Ehara, K. Toyota, R. Fukuda, J. Hasegawa, M. Ishida, T. Nakajima, 
 Y. Honda, O. Kitao, H. Nakai, T. Vreven, J. A. Montgomery, Jr., 
 J. E. Peralta, F. Ogliaro, M. Bearpark, J. J. Heyd, E. Brothers, 
 K. N. Kudin, V. N. Staroverov, R. Kobayashi, J. Normand, 
 K. Raghavachari, A. Rendell, J. C. Burant, S. S. Iyengar, J. Tomasi, 
 M. Cossi, N. Rega, J. M. Millam, M. Klene, J. E. Knox, J. B. Cross, 
 V. Bakken, C. Adamo, J. Jaramillo, R. Gomperts, R. E. Stratmann, 
 O. Yazyev, A. J. Austin, R. Cammi, C. Pomelli, J. W. Ochterski, 
 R. L. Martin, K. Morokuma, V. G. Zakrzewski, G. A. Voth, 
 P. Salvador, J. J. Dannenberg, S. Dapprich, A. D. Daniels, 
 O. Farkas, J. B. Foresman, J. V. Ortiz, J. Cioslowski, 
 and D. J. Fox, Gaussian, Inc., Wallingford CT, 2009.
 
 ******************************************
 Gaussian 09:  IA32W-G09RevA.02 11-Jun-2009
                06-Jul-2019 
 ******************************************
 %nprocshared=4
 Will use up to    4 processors via shared memory.
 %mem=1600MB
 ----------------------------------------------------
 #p opt b3lyp/6-311++g(d,p) pop=nbo geom=connectivity
 ----------------------------------------------------
 1/14=-1,18=20,19=15,26=3,38=1,57=2/1,3;
 2/9=110,12=2,17=6,18=5,40=1/2;
 3/5=4,6=6,7=1111,11=2,16=1,25=1,30=1,71=1,74=-5/1,2,3;
 4//1;
 5/5=2,38=5/2;
 6/7=2,8=2,9=2,10=2,28=1/1,7;
 7//1,2,3,16;
 1/14=-1,18=20,19=15/3(2);
 2/9=110/2;
 99//99;
 2/9=110/2;
 3/5=4,6=6,7=1111,11=2,16=1,25=1,30=1,71=1,74=-5/1,2,3;
 4/5=5,16=3/1;
 5/5=2,38=5/2;
 7//1,2,3,16;
 1/14=-1,18=20,19=15/3(-5);
 2/9=110/2;
 6/7=2,8=2,9=2,10=2,19=2,28=1/1,7;
 99/9=1/99;
 Leave Link    1 at Sat Jul 06 01:51:46 2019, MaxMem=  209715200 cpu:       0.0
 (Enter C:\G09W\l101.exe)
 ------
 8c.log
 ------
 Symbolic Z-matrix:
 Charge =  0 Multiplicity = 1
 C                    -1.50313  -0.56976   1.29939 
 C                    -0.86904  -0.62466   0.06035 
 C                    -1.61038  -0.3941   -1.0815 
 C                    -2.96625  -0.10176  -1.00846 
 C                    -3.58819  -0.0445    0.22967 
 C                    -2.84559  -0.28224   1.38623 
 N                     0.51993  -0.93683  -0.02789 
 C                     1.51051  -0.02779  -0.00234 
 C                     2.83261  -0.20493  -0.05705 
 C                     1.26289   1.45507   0.09622 
 C                     3.50787   1.09008  -0.00108 
 O                     2.54184   2.03348   0.08862 
 Cl                    3.6689   -1.70228  -0.17614 
 O                     4.65743   1.35318  -0.02405 
 O                    -4.88916   0.22827   0.41823 
 C                    -5.72079   0.48001  -0.68224 
 H                    -0.93391  -0.75772   2.19247 
 H                    -1.12927  -0.44571  -2.04212 
 H                    -3.51214   0.07292  -1.91475 
 H                    -3.34522  -0.23677   2.33575 
 H                     0.78911  -1.89369  -0.08287 
 H                     0.68924   1.8238   -0.74489 
 H                     0.74763   1.71719   1.01187 
 H                    -5.76766  -0.37672  -1.34675 
 H                    -6.70384   0.67033  -0.2787 
 H                    -5.38863   1.35095  -1.23803 
 
 NAtoms=     26 NQM=     26 NQMF=      0 NMic=      0 NMicF=      0 NTot=     26.
                    Isotopes and Nuclear Properties:
 (Nuclear quadrupole moments (NQMom) in fm**2, nuclear magnetic moments (NMagM)
  in nuclear magnetons)

  Atom         1           2           3           4           5           6           7           8           9          10
 IAtWgt=          12          12          12          12          12          12          14          12          12          12
 AtmWgt=  12.0000000  12.0000000  12.0000000  12.0000000  12.0000000  12.0000000  14.0030740  12.0000000  12.0000000  12.0000000
 NucSpn=           0           0           0           0           0           0           2           0           0           0
 AtZEff=   0.0000000   0.0000000   0.0000000   0.0000000   0.0000000   0.0000000   0.0000000   0.0000000   0.0000000   0.0000000
 NQMom=    0.0000000   0.0000000   0.0000000   0.0000000   0.0000000   0.0000000   2.0440000   0.0000000   0.0000000   0.0000000
 NMagM=    0.0000000   0.0000000   0.0000000   0.0000000   0.0000000   0.0000000   0.4037610   0.0000000   0.0000000   0.0000000

  Atom        11          12          13          14          15          16          17          18          19          20
 IAtWgt=          12          16          35          16          16          12           1           1           1           1
 AtmWgt=  12.0000000  15.9949146  34.9688527  15.9949146  15.9949146  12.0000000   1.0078250   1.0078250   1.0078250   1.0078250
 NucSpn=           0           0           3           0           0           0           1           1           1           1
 AtZEff=   0.0000000   0.0000000   0.0000000   0.0000000   0.0000000   0.0000000   0.0000000   0.0000000   0.0000000   0.0000000
 NQMom=    0.0000000   0.0000000  -8.1650000   0.0000000   0.0000000   0.0000000   0.0000000   0.0000000   0.0000000   0.0000000
 NMagM=    0.0000000   0.0000000   0.8218740   0.0000000   0.0000000   0.0000000   2.7928460   2.7928460   2.7928460   2.7928460

  Atom        21          22          23          24          25          26
 IAtWgt=           1           1           1           1           1           1
 AtmWgt=   1.0078250   1.0078250   1.0078250   1.0078250   1.0078250   1.0078250
 NucSpn=           1           1           1           1           1           1
 AtZEff=   0.0000000   0.0000000   0.0000000   0.0000000   0.0000000   0.0000000
 NQMom=    0.0000000   0.0000000   0.0000000   0.0000000   0.0000000   0.0000000
 NMagM=    2.7928460   2.7928460   2.7928460   2.7928460   2.7928460   2.7928460
 Leave Link  101 at Sat Jul 06 01:51:46 2019, MaxMem=  209715200 cpu:       0.0
 (Enter C:\G09W\l103.exe)

 GradGradGradGradGradGradGradGradGradGradGradGradGradGradGradGradGradGrad
 Berny optimization.
 Initialization pass.
                           ----------------------------
                           !    Initial Parameters    !
                           ! (Angstroms and Degrees)  !
 --------------------------                            --------------------------
 ! Name  Definition              Value          Derivative Info.                !
 --------------------------------------------------------------------------------
 ! R1    R(1,2)                  1.3929         estimate D2E/DX2                !
 ! R2    R(1,6)                  1.3757         estimate D2E/DX2                !
 ! R3    R(1,17)                 1.0756         estimate D2E/DX2                !
 ! R4    R(2,3)                  1.3808         estimate D2E/DX2                !
 ! R5    R(2,7)                  1.4263         estimate D2E/DX2                !
 ! R6    R(3,4)                  1.3889         estimate D2E/DX2                !
 ! R7    R(3,18)                 1.0756         estimate D2E/DX2                !
 ! R8    R(4,5)                  1.3867         estimate D2E/DX2                !
 ! R9    R(4,19)                 1.0723         estimate D2E/DX2                !
 ! R10   R(5,6)                  1.3949         estimate D2E/DX2                !
 ! R11   R(5,15)                 1.3426         estimate D2E/DX2                !
 ! R12   R(6,20)                 1.0739         estimate D2E/DX2                !
 ! R13   R(7,8)                  1.3447         estimate D2E/DX2                !
 ! R14   R(7,21)                 0.9955         estimate D2E/DX2                !
 ! R15   R(8,9)                  1.335          estimate D2E/DX2                !
 ! R16   R(8,10)                 1.5066         estimate D2E/DX2                !
 ! R17   R(9,11)                 1.4616         estimate D2E/DX2                !
 ! R18   R(9,13)                 1.7192         estimate D2E/DX2                !
 ! R19   R(10,12)                1.4037         estimate D2E/DX2                !
 ! R20   R(10,22)                1.0828         estimate D2E/DX2                !
 ! R21   R(10,23)                1.0829         estimate D2E/DX2                !
 ! R22   R(11,12)                1.3532         estimate D2E/DX2                !
 ! R23   R(11,14)                1.1795         estimate D2E/DX2                !
 ! R24   R(15,16)                1.4021         estimate D2E/DX2                !
 ! R25   R(16,24)                1.0852         estimate D2E/DX2                !
 ! R26   R(16,25)                1.0796         estimate D2E/DX2                !
 ! R27   R(16,26)                1.0853         estimate D2E/DX2                !
 ! A1    A(2,1,6)              120.5721         estimate D2E/DX2                !
 ! A2    A(2,1,17)             119.3917         estimate D2E/DX2                !
 ! A3    A(6,1,17)             120.0359         estimate D2E/DX2                !
 ! A4    A(1,2,3)              118.9866         estimate D2E/DX2                !
 ! A5    A(1,2,7)              120.4597         estimate D2E/DX2                !
 ! A6    A(3,2,7)              120.5451         estimate D2E/DX2                !
 ! A7    A(2,3,4)              121.0489         estimate D2E/DX2                !
 ! A8    A(2,3,18)             119.3662         estimate D2E/DX2                !
 ! A9    A(4,3,18)             119.5846         estimate D2E/DX2                !
 ! A10   A(3,4,5)              119.5675         estimate D2E/DX2                !
 ! A11   A(3,4,19)             119.1299         estimate D2E/DX2                !
 ! A12   A(5,4,19)             121.3024         estimate D2E/DX2                !
 ! A13   A(4,5,6)              119.6366         estimate D2E/DX2                !
 ! A14   A(4,5,15)             124.6372         estimate D2E/DX2                !
 ! A15   A(6,5,15)             115.7262         estimate D2E/DX2                !
 ! A16   A(1,6,5)              120.1868         estimate D2E/DX2                !
 ! A17   A(1,6,20)             121.2448         estimate D2E/DX2                !
 ! A18   A(5,6,20)             118.5683         estimate D2E/DX2                !
 ! A19   A(2,7,8)              124.6262         estimate D2E/DX2                !
 ! A20   A(2,7,21)             118.4951         estimate D2E/DX2                !
 ! A21   A(8,7,21)             116.8475         estimate D2E/DX2                !
 ! A22   A(7,8,9)              129.7204         estimate D2E/DX2                !
 ! A23   A(7,8,10)             123.0599         estimate D2E/DX2                !
 ! A24   A(9,8,10)             107.2195         estimate D2E/DX2                !
 ! A25   A(8,9,11)             109.7797         estimate D2E/DX2                !
 ! A26   A(8,9,13)             126.8791         estimate D2E/DX2                !
 ! A27   A(11,9,13)            123.3412         estimate D2E/DX2                !
 ! A28   A(8,10,12)            104.8009         estimate D2E/DX2                !
 ! A29   A(8,10,22)            111.8025         estimate D2E/DX2                !
 ! A30   A(8,10,23)            111.8248         estimate D2E/DX2                !
 ! A31   A(12,10,22)           109.7653         estimate D2E/DX2                !
 ! A32   A(12,10,23)           109.7777         estimate D2E/DX2                !
 ! A33   A(22,10,23)           108.8034         estimate D2E/DX2                !
 ! A34   A(9,11,12)            106.8833         estimate D2E/DX2                !
 ! A35   A(9,11,14)            130.3286         estimate D2E/DX2                !
 ! A36   A(12,11,14)           122.788          estimate D2E/DX2                !
 ! A37   A(10,12,11)           111.3166         estimate D2E/DX2                !
 ! A38   A(5,15,16)            120.0653         estimate D2E/DX2                !
 ! A39   A(15,16,24)           111.3741         estimate D2E/DX2                !
 ! A40   A(15,16,25)           106.1628         estimate D2E/DX2                !
 ! A41   A(15,16,26)           111.3765         estimate D2E/DX2                !
 ! A42   A(24,16,25)           109.1921         estimate D2E/DX2                !
 ! A43   A(24,16,26)           109.4615         estimate D2E/DX2                !
 ! A44   A(25,16,26)           109.1868         estimate D2E/DX2                !
 ! D1    D(6,1,2,3)             -0.3969         estimate D2E/DX2                !
 ! D2    D(6,1,2,7)           -179.3378         estimate D2E/DX2                !
 ! D3    D(17,1,2,3)           179.4099         estimate D2E/DX2                !
 ! D4    D(17,1,2,7)             0.469          estimate D2E/DX2                !
 ! D5    D(2,1,6,5)              0.1236         estimate D2E/DX2                !
 ! D6    D(2,1,6,20)          -179.975          estimate D2E/DX2                !
 ! D7    D(17,1,6,5)          -179.6819         estimate D2E/DX2                !
 ! D8    D(17,1,6,20)            0.2196         estimate D2E/DX2                !
 ! D9    D(1,2,3,4)              0.4461         estimate D2E/DX2                !
 ! D10   D(1,2,3,18)          -179.3273         estimate D2E/DX2                !
 ! D11   D(7,2,3,4)            179.3861         estimate D2E/DX2                !
 ! D12   D(7,2,3,18)            -0.3873         estimate D2E/DX2                !
 ! D13   D(1,2,7,8)            -90.3025         estimate D2E/DX2                !
 ! D14   D(1,2,7,21)            87.597          estimate D2E/DX2                !
 ! D15   D(3,2,7,8)             90.7732         estimate D2E/DX2                !
 ! D16   D(3,2,7,21)           -91.3273         estimate D2E/DX2                !
 ! D17   D(2,3,4,5)             -0.2204         estimate D2E/DX2                !
 ! D18   D(2,3,4,19)           179.9408         estimate D2E/DX2                !
 ! D19   D(18,3,4,5)           179.5525         estimate D2E/DX2                !
 ! D20   D(18,3,4,19)           -0.2863         estimate D2E/DX2                !
 ! D21   D(3,4,5,6)             -0.06           estimate D2E/DX2                !
 ! D22   D(3,4,5,15)          -179.9913         estimate D2E/DX2                !
 ! D23   D(19,4,5,6)           179.7752         estimate D2E/DX2                !
 ! D24   D(19,4,5,15)           -0.1561         estimate D2E/DX2                !
 ! D25   D(4,5,6,1)              0.1069         estimate D2E/DX2                !
 ! D26   D(4,5,6,20)          -179.7971         estimate D2E/DX2                !
 ! D27   D(15,5,6,1)          -179.9558         estimate D2E/DX2                !
 ! D28   D(15,5,6,20)            0.1401         estimate D2E/DX2                !
 ! D29   D(4,5,15,16)            0.0197         estimate D2E/DX2                !
 ! D30   D(6,5,15,16)         -179.9141         estimate D2E/DX2                !
 ! D31   D(2,7,8,9)            178.8944         estimate D2E/DX2                !
 ! D32   D(2,7,8,10)            -1.299          estimate D2E/DX2                !
 ! D33   D(21,7,8,9)             0.9634         estimate D2E/DX2                !
 ! D34   D(21,7,8,10)         -179.23           estimate D2E/DX2                !
 ! D35   D(7,8,9,11)           179.8102         estimate D2E/DX2                !
 ! D36   D(7,8,9,13)            -0.1664         estimate D2E/DX2                !
 ! D37   D(10,8,9,11)           -0.0201         estimate D2E/DX2                !
 ! D38   D(10,8,9,13)         -179.9967         estimate D2E/DX2                !
 ! D39   D(7,8,10,12)         -179.8292         estimate D2E/DX2                !
 ! D40   D(7,8,10,22)          -60.9858         estimate D2E/DX2                !
 ! D41   D(7,8,10,23)           61.3008         estimate D2E/DX2                !
 ! D42   D(9,8,10,12)            0.015          estimate D2E/DX2                !
 ! D43   D(9,8,10,22)          118.8584         estimate D2E/DX2                !
 ! D44   D(9,8,10,23)         -118.8549         estimate D2E/DX2                !
 ! D45   D(8,9,11,12)            0.0182         estimate D2E/DX2                !
 ! D46   D(8,9,11,14)         -179.9575         estimate D2E/DX2                !
 ! D47   D(13,9,11,12)         179.9958         estimate D2E/DX2                !
 ! D48   D(13,9,11,14)           0.0201         estimate D2E/DX2                !
 ! D49   D(8,10,12,11)          -0.0037         estimate D2E/DX2                !
 ! D50   D(22,10,12,11)       -120.2124         estimate D2E/DX2                !
 ! D51   D(23,10,12,11)        120.2377         estimate D2E/DX2                !
 ! D52   D(9,11,12,10)          -0.008          estimate D2E/DX2                !
 ! D53   D(14,11,12,10)        179.97           estimate D2E/DX2                !
 ! D54   D(5,15,16,24)          61.2917         estimate D2E/DX2                !
 ! D55   D(5,15,16,25)        -179.9594         estimate D2E/DX2                !
 ! D56   D(5,15,16,26)         -61.2155         estimate D2E/DX2                !
 --------------------------------------------------------------------------------
 Trust Radius=3.00D-01 FncErr=1.00D-07 GrdErr=1.00D-06
 Number of steps in this run= 137 maximum allowed number of steps= 156.
 GradGradGradGradGradGradGradGradGradGradGradGradGradGradGradGradGradGrad

 Leave Link  103 at Sat Jul 06 01:51:46 2019, MaxMem=  209715200 cpu:       0.0
 (Enter C:\G09W\l202.exe)
                          Input orientation:                          
 ---------------------------------------------------------------------
 Center     Atomic      Atomic             Coordinates (Angstroms)
 Number     Number       Type             X           Y           Z
 ---------------------------------------------------------------------
      1          6           0       -1.503126   -0.569763    1.299386
      2          6           0       -0.869042   -0.624655    0.060346
      3          6           0       -1.610384   -0.394101   -1.081503
      4          6           0       -2.966252   -0.101762   -1.008462
      5          6           0       -3.588192   -0.044503    0.229674
      6          6           0       -2.845587   -0.282241    1.386234
      7          7           0        0.519928   -0.936825   -0.027889
      8          6           0        1.510509   -0.027792   -0.002344
      9          6           0        2.832611   -0.204926   -0.057054
     10          6           0        1.262886    1.455069    0.096221
     11          6           0        3.507868    1.090084   -0.001075
     12          8           0        2.541840    2.033480    0.088617
     13         17           0        3.668899   -1.702277   -0.176135
     14          8           0        4.657433    1.353177   -0.024048
     15          8           0       -4.889160    0.228270    0.418232
     16          6           0       -5.720792    0.480005   -0.682236
     17          1           0       -0.933909   -0.757723    2.192466
     18          1           0       -1.129272   -0.445707   -2.042118
     19          1           0       -3.512139    0.072917   -1.914747
     20          1           0       -3.345222   -0.236766    2.335746
     21          1           0        0.789111   -1.893686   -0.082867
     22          1           0        0.689240    1.823796   -0.744891
     23          1           0        0.747633    1.717194    1.011873
     24          1           0       -5.767658   -0.376721   -1.346746
     25          1           0       -6.703837    0.670331   -0.278699
     26          1           0       -5.388635    1.350953   -1.238029
 ---------------------------------------------------------------------
                    Distance matrix (angstroms):
                    1          2          3          4          5
     1  C    0.000000
     2  C    1.392945   0.000000
     3  C    2.389769   1.380783   0.000000
     4  C    2.772350   2.411236   1.388947   0.000000
     5  C    2.401600   2.785503   2.398568   1.386748   0.000000
     6  C    1.375650   2.404570   2.761877   2.404517   1.394852
     7  N    2.447272   1.426350   2.437802   3.716491   4.211796
     8  C    3.327195   2.454066   3.322460   4.589023   5.104005
     9  C    4.557593   3.727223   4.563495   5.877298   6.429204
    10  C    3.632957   2.978533   3.614159   4.640006   5.079319
    11  C    5.436575   4.701217   5.437521   6.659546   7.189896
    12  O    4.960301   4.324419   4.950080   6.008487   6.474195
    13  Cl   5.496325   4.670129   5.513787   6.876020   7.455083
    14  O    6.587994   5.870338   6.592171   7.823458   8.367091
    15  O    3.588665   4.125156   3.658814   2.417013   1.342564
    16  C    4.776771   5.031022   4.221247   2.834143   2.377955
    17  H    1.075606   2.137253   3.362843   3.847940   3.377344
    18  H    3.364640   2.126052   1.075599   2.135706   3.371690
    19  H    3.844453   3.372471   2.128162   1.072314   2.148980
    20  H    2.139684   3.385169   3.835624   3.368319   2.128741
    21  H    2.986260   2.092946   3.000601   4.262683   4.762136
    22  H    3.835969   3.011903   3.212576   4.140032   4.768306
    23  H    3.221607   3.000550   3.794738   4.602532   4.744975
    24  H    5.022501   5.102727   4.165763   2.835122   2.710266
    25  H    5.574548   5.986382   5.265052   3.885643   3.236769
    26  H    5.022430   5.100542   4.164720   2.833906   2.709805
                    6          7          8          9         10
     6  C    0.000000
     7  N    3.708762   0.000000
     8  C    4.579134   1.344710   0.000000
     9  C    5.859265   2.425908   1.335037   0.000000
    10  C    4.643483   2.507698   1.506622   2.289785   0.000000
    11  C    6.646374   3.610660   2.288906   1.461560   2.276538
    12  O    6.005892   3.595054   2.306677   2.261908   1.403688
    13  Cl   6.848067   3.244058   2.737289   1.719191   3.978933
    14  O    7.807611   4.728961   3.436667   2.399740   3.398205
    15  O    2.318154   5.551099   6.418584   7.748503   6.281433
    16  C    3.623036   6.432897   7.280922   8.603528   7.094258
    17  H    2.128522   2.660018   3.365289   4.421832   3.757206
    18  H    3.837454   2.649184   3.362109   4.437902   3.729325
    19  H    3.386282   4.564798   5.375353   6.616953   5.362388
    20  H    1.073907   4.584347   5.393372   6.625113   5.395594
    21  H    4.238637   0.995522   2.002114   2.651126   3.386841
    22  H    4.633798   2.857234   2.157368   3.030325   1.082820
    23  H    4.129058   2.859505   2.157682   3.030558   1.082873
    24  H    4.002075   6.448786   7.409513   8.698129   7.407169
    25  H    4.308769   7.404636   8.248589   9.579094   8.014054
    26  H    4.002646   6.450541   7.143252   8.450109   6.784821
                   11         12         13         14         15
    11  C    0.000000
    12  O    1.353237   0.000000
    13  Cl   2.802473   3.911040   0.000000
    14  O    1.179511   2.225138   3.214985   0.000000
    15  O    8.451545   7.654227   8.793217   9.622810   0.000000
    16  C    9.273853   8.442665   9.653227  10.435669   1.402146
    17  H    5.287286   4.929282   5.261967   6.374319   4.445683
    18  H    5.294108   4.915635   5.299368   6.387061   4.543603
    19  H    7.346922   6.671427   7.598776   8.482671   2.713506
    20  H    7.361121   6.697843   7.593100   8.493470   2.505367
    21  H    4.037476   4.303963   2.887649   5.050692   6.082480
    22  H    3.006037   2.042261   4.651348   4.060499   5.917525
    23  H    3.006365   2.042454   4.651660   4.061056   5.860268
    24  H    9.486713   8.770239   9.600835  10.650099   2.062261
    25  H   10.224098   9.352841  10.641120  11.384620   1.993535
    26  H    8.985871   8.069589   9.617107  10.119152   2.062303
                   16         17         18         19         20
    16  C    0.000000
    17  H    5.719277   0.000000
    18  H    4.877323   4.250556   0.000000
    19  H    2.561826   4.920003   2.441977   0.000000
    20  H    3.907084   2.471104   4.911190   4.265027   0.000000
    21  H    6.955033   3.071864   3.100887   5.071890   5.068312
    22  H    6.549673   4.234019   3.184404   4.699545   5.478423
    23  H    6.800086   3.216613   4.186618   5.423505   4.724623
    24  H    1.085242   6.003025   4.690728   2.369001   4.410049
    25  H    1.079557   6.437240   5.952391   3.636000   4.351832
    26  H    1.085258   6.004947   4.692198   2.369084   4.412285
                   21         22         23         24         25
    21  H    0.000000
    22  H    3.777290   0.000000
    23  H    3.773411   1.760964   0.000000
    24  H    6.847612   6.848068   7.238548   0.000000
    25  H    7.921919   7.497026   7.634521   1.764504   0.000000
    26  H    7.072950   6.116153   6.545989   1.772099   1.764459
                   26
    26  H    0.000000
 Stoichiometry    C11H10ClNO3
 Framework group  C1[X(C11H10ClNO3)]
 Deg. of freedom    72
 Full point group                 C1      NOp   1
 Largest Abelian subgroup         C1      NOp   1
 Largest concise Abelian subgroup C1      NOp   1
                         Standard orientation:                         
 ---------------------------------------------------------------------
 Center     Atomic      Atomic             Coordinates (Angstroms)
 Number     Number       Type             X           Y           Z
 ---------------------------------------------------------------------
      1          6           0       -1.503126   -0.569763    1.299386
      2          6           0       -0.869042   -0.624655    0.060346
      3          6           0       -1.610384   -0.394101   -1.081503
      4          6           0       -2.966252   -0.101762   -1.008462
      5          6           0       -3.588192   -0.044503    0.229674
      6          6           0       -2.845587   -0.282241    1.386234
      7          7           0        0.519928   -0.936825   -0.027889
      8          6           0        1.510509   -0.027792   -0.002344
      9          6           0        2.832611   -0.204926   -0.057054
     10          6           0        1.262886    1.455069    0.096221
     11          6           0        3.507868    1.090084   -0.001075
     12          8           0        2.541840    2.033480    0.088617
     13         17           0        3.668899   -1.702277   -0.176135
     14          8           0        4.657433    1.353177   -0.024048
     15          8           0       -4.889160    0.228270    0.418232
     16          6           0       -5.720792    0.480005   -0.682236
     17          1           0       -0.933909   -0.757723    2.192466
     18          1           0       -1.129272   -0.445707   -2.042118
     19          1           0       -3.512139    0.072917   -1.914747
     20          1           0       -3.345222   -0.236766    2.335746
     21          1           0        0.789111   -1.893686   -0.082867
     22          1           0        0.689240    1.823796   -0.744891
     23          1           0        0.747633    1.717194    1.011873
     24          1           0       -5.767658   -0.376721   -1.346746
     25          1           0       -6.703837    0.670331   -0.278699
     26          1           0       -5.388635    1.350953   -1.238029
 ---------------------------------------------------------------------
 Rotational constants (GHZ):      1.3275092      0.1906742      0.1788999
 Leave Link  202 at Sat Jul 06 01:51:46 2019, MaxMem=  209715200 cpu:       0.0
 (Enter C:\G09W\l301.exe)
 Standard basis: 6-311++G(d,p) (5D, 7F)
 Ernie: Thresh=  0.10000D-02 Tol=  0.10000D-05 Strict=F.
 There are   430 symmetry adapted basis functions of A   symmetry.
 Integral buffers will be    262144 words long.
 Raffenetti 2 integral format.
 Two-electron integral symmetry is turned on.
   430 basis functions,   683 primitive gaussians,   446 cartesian basis functions
    62 alpha electrons       62 beta electrons
       nuclear repulsion energy      1139.0566333223 Hartrees.
 IExCor=  402 DFT=T Ex+Corr=B3LYP ExCW=0 ScaHFX=  0.200000
 ScaDFX=  0.800000  0.720000  1.000000  0.810000 ScalE2=  1.000000  1.000000
 IRadAn=      0 IRanWt=     -1 IRanGd=            0 ICorTp=0
 NAtoms=   26 NActive=   26 NUniq=   26 SFac= 7.50D-01 NAtFMM=   80 NAOKFM=F Big=F
 Leave Link  301 at Sat Jul 06 01:51:46 2019, MaxMem=  209715200 cpu:       0.0
 (Enter C:\G09W\l302.exe)
 NPDir=0 NMtPBC=     1 NCelOv=     1 NCel=       1 NClECP=     1 NCelD=      1
         NCelK=      1 NCelE2=     1 NClLst=     1 CellRange=     0.0.
 One-electron integrals computed using PRISM.
 NBasis=   430 RedAO= T  NBF=   430
 NBsUse=   429 1.00D-06 NBFU=   429
 Precomputing XC quadrature grid using
 IXCGrd= 2 IRadAn=           0 IRanWt=          -1 IRanGd=           0 AccXCQ= 1.00D-10.
 NRdTot=    1693 NPtTot=      216158 NUsed=      224049 NTot=      224065
 NSgBfM=   436   436   436   436   436 NAtAll=    26    26.
 Leave Link  302 at Sat Jul 06 01:51:47 2019, MaxMem=  209715200 cpu:       1.0
 (Enter C:\G09W\l303.exe)
 DipDrv:  MaxL=1.
 Leave Link  303 at Sat Jul 06 01:51:48 2019, MaxMem=  209715200 cpu:       1.0
 (Enter C:\G09W\l401.exe)
 Harris functional with IExCor=  402 diagonalized for initial guess.
 ExpMin= 3.60D-02 ExpMax= 1.06D+05 ExpMxC= 3.62D+03 IAcc=3 IRadAn=         0 AccDes= 0.00D+00
 HarFok:  IExCor=  402 AccDes= 0.00D+00 IRadAn=         0 IDoV= 1
 ScaDFX=  1.000000  1.000000  1.000000  1.000000
 FoFCou: FMM=F IPFlag=           0 FMFlag=      100000 FMFlg1=           0
         NFxFlg=           0 DoJE=T BraDBF=F KetDBF=T FulRan=T
         Omega=  0.000000  0.000000  1.000000  0.000000  0.000000 ICntrl=     500 IOpCl=  0
         NMat0=    1 NMatS0=    1 NMatT0=    0 NMatD0=    1 NMtDS0=    0 NMtDT0=    0
         I1Cent=           4 NGrid=           0.
 Petite list used in FoFCou.
 Harris En= -1166.06758266864    
 Initial guess orbital symmetries:
       Occupied  (A) (A) (A) (A) (A) (A) (A) (A) (A) (A) (A) (A)
                 (A) (A) (A) (A) (A) (A) (A) (A) (A) (A) (A) (A)
                 (A) (A) (A) (A) (A) (A) (A) (A) (A) (A) (A) (A)
                 (A) (A) (A) (A) (A) (A) (A) (A) (A) (A) (A) (A)
                 (A) (A) (A) (A) (A) (A) (A) (A) (A) (A) (A) (A)
                 (A) (A)
       Virtual   (A) (A) (A) (A) (A) (A) (A) (A) (A) (A) (A) (A)
                 (A) (A) (A) (A) (A) (A) (A) (A) (A) (A) (A) (A)
                 (A) (A) (A) (A) (A) (A) (A) (A) (A) (A) (A) (A)
                 (A) (A) (A) (A) (A) (A) (A) (A) (A) (A) (A) (A)
                 (A) (A) (A) (A) (A) (A) (A) (A) (A) (A) (A) (A)
                 (A) (A) (A) (A) (A) (A) (A) (A) (A) (A) (A) (A)
                 (A) (A) (A) (A) (A) (A) (A) (A) (A) (A) (A) (A)
                 (A) (A) (A) (A) (A) (A) (A) (A) (A) (A) (A) (A)
                 (A) (A) (A) (A) (A) (A) (A) (A) (A) (A) (A) (A)
                 (A) (A) (A) (A) (A) (A) (A) (A) (A) (A) (A) (A)
                 (A) (A) (A) (A) (A) (A) (A) (A) (A) (A) (A) (A)
                 (A) (A) (A) (A) (A) (A) (A) (A) (A) (A) (A) (A)
                 (A) (A) (A) (A) (A) (A) (A) (A) (A) (A) (A) (A)
                 (A) (A) (A) (A) (A) (A) (A) (A) (A) (A) (A) (A)
                 (A) (A) (A) (A) (A) (A) (A) (A) (A) (A) (A) (A)
                 (A) (A) (A) (A) (A) (A) (A) (A) (A) (A) (A) (A)
                 (A) (A) (A) (A) (A) (A) (A) (A) (A) (A) (A) (A)
                 (A) (A) (A) (A) (A) (A) (A) (A) (A) (A) (A) (A)
                 (A) (A) (A) (A) (A) (A) (A) (A) (A) (A) (A) (A)
                 (A) (A) (A) (A) (A) (A) (A) (A) (A) (A) (A) (A)
                 (A) (A) (A) (A) (A) (A) (A) (A) (A) (A) (A) (A)
                 (A) (A) (A) (A) (A) (A) (A) (A) (A) (A) (A) (A)
                 (A) (A) (A) (A) (A) (A) (A) (A) (A) (A) (A) (A)
                 (A) (A) (A) (A) (A) (A) (A) (A) (A) (A) (A) (A)
                 (A) (A) (A) (A) (A) (A) (A) (A) (A) (A) (A) (A)
                 (A) (A) (A) (A) (A) (A) (A) (A) (A) (A) (A) (A)
                 (A) (A) (A) (A) (A) (A) (A) (A) (A) (A) (A) (A)
                 (A) (A) (A) (A) (A) (A) (A) (A) (A) (A) (A) (A)
                 (A) (A) (A) (A) (A) (A) (A) (A) (A) (A) (A) (A)
                 (A) (A) (A) (A) (A) (A) (A) (A) (A) (A) (A) (A)
                 (A) (A) (A) (A) (A) (A) (A)
 The electronic state of the initial guess is 1-A.
 Leave Link  401 at Sat Jul 06 01:51:54 2019, MaxMem=  209715200 cpu:       6.0
 (Enter C:\G09W\l502.exe)
 Closed shell SCF:
 Requested convergence on RMS density matrix=1.00D-08 within 128 cycles.
 Requested convergence on MAX density matrix=1.00D-06.
 Requested convergence on             energy=1.00D-06.
 No special actions if energy rises.
 Using DIIS extrapolation, IDIIS=  1040.
 Integral symmetry usage will be decided dynamically.
       223829 words used for storage of precomputed grid.
 IEnd=      844160 IEndB=      844160 NGot=   209715200 MDV=   209087043
 LenX=   209087043 LenY=   208887681
 Fock matrices will be formed incrementally for  20 cycles.

 Cycle   1  Pass 1  IDiag  1:
 FoFCou: FMM=F IPFlag=           0 FMFlag=      100000 FMFlg1=           0
         NFxFlg=           0 DoJE=F BraDBF=F KetDBF=F FulRan=T
         Omega=  0.000000  0.000000  1.000000  0.000000  0.000000 ICntrl=       0 IOpCl=  0
         NMat0=    1 NMatS0=    1 NMatT0=    0 NMatD0=    1 NMtDS0=    0 NMtDT0=    0
         I1Cent=           0 NGrid=           0.
 Symmetry not used in FoFCou.
 E= -1165.64273192637    
 DIIS: error= 2.15D-02 at cycle   1 NSaved=   1.
 NSaved= 1 IEnMin= 1 EnMin= -1165.64273192637     IErMin= 1 ErrMin= 2.15D-02
 ErrMax= 2.15D-02 EMaxC= 1.00D-01 BMatC= 4.84D-01 BMatP= 4.84D-01
 IDIUse=3 WtCom= 7.85D-01 WtEn= 2.15D-01
 Coeff-Com:  0.100D+01
 Coeff-En:   0.100D+01
 Coeff:      0.100D+01
 Gap=     0.272 Goal=   None    Shift=    0.000
 GapD=    0.272 DampG=1.000 DampE=0.500 DampFc=0.5000 IDamp=-1.
 Damping current iteration by 5.00D-01
 RMSDP=2.45D-02 MaxDP=2.41D+00              OVMax= 2.61D-01

 Cycle   2  Pass 1  IDiag  1:
 RMSU=  7.01D-03    CP:  9.11D-01
 E= -1165.77686631843     Delta-E=       -0.134134392066 Rises=F Damp=T
 DIIS: error= 7.70D-03 at cycle   2 NSaved=   2.
 NSaved= 2 IEnMin= 2 EnMin= -1165.77686631843     IErMin= 2 ErrMin= 7.70D-03
 ErrMax= 7.70D-03 EMaxC= 1.00D-01 BMatC= 5.12D-02 BMatP= 4.84D-01
 IDIUse=3 WtCom= 9.23D-01 WtEn= 7.70D-02
 Coeff-Com:  0.117D+00 0.883D+00
 Coeff-En:   0.240D+00 0.760D+00
 Coeff:      0.127D+00 0.873D+00
 Gap=     0.289 Goal=   None    Shift=    0.000
 RMSDP=1.54D-02 MaxDP=3.50D+00 DE=-1.34D-01 OVMax= 2.05D-01

 Cycle   3  Pass 1  IDiag  1:
 RMSU=  6.29D-03    CP:  7.59D-01  6.79D-01
 E= -1165.96077199281     Delta-E=       -0.183905674374 Rises=F Damp=F
 DIIS: error= 1.39D-02 at cycle   3 NSaved=   3.
 NSaved= 3 IEnMin= 3 EnMin= -1165.96077199281     IErMin= 2 ErrMin= 7.70D-03
 ErrMax= 1.39D-02 EMaxC= 1.00D-01 BMatC= 7.13D-02 BMatP= 5.12D-02
 IDIUse=2 WtCom= 0.00D+00 WtEn= 1.00D+00
 Coeff-En:   0.000D+00 0.000D+00 0.100D+01
 Coeff:      0.000D+00 0.000D+00 0.100D+01
 Gap=     0.204 Goal=   None    Shift=    0.000
 RMSDP=8.93D-03 MaxDP=1.27D+00 DE=-1.84D-01 OVMax= 3.13D-01

 Cycle   4  Pass 1  IDiag  1:
 RMSU=  4.41D-03    CP:  7.02D-01  1.12D+00  1.04D+00
 E= -1165.68186555340     Delta-E=        0.278906439404 Rises=F Damp=F
 DIIS: error= 3.81D-02 at cycle   4 NSaved=   4.
 NSaved= 4 IEnMin= 3 EnMin= -1165.96077199281     IErMin= 2 ErrMin= 7.70D-03
 ErrMax= 3.81D-02 EMaxC= 1.00D-01 BMatC= 4.27D-01 BMatP= 5.12D-02
 IDIUse=2 WtCom= 0.00D+00 WtEn= 1.00D+00
 Coeff-En:   0.000D+00 0.000D+00 0.807D+00 0.193D+00
 Coeff:      0.000D+00 0.000D+00 0.807D+00 0.193D+00
 Gap=     0.194 Goal=   None    Shift=    0.000
 RMSDP=4.47D-03 MaxDP=3.60D-01 DE= 2.79D-01 OVMax= 1.11D-01

 Cycle   5  Pass 1  IDiag  1:
 RMSU=  7.93D-04    CP:  7.11D-01  8.67D-01  1.05D+00  4.50D-01
 E= -1165.98698610768     Delta-E=       -0.305120554274 Rises=F Damp=F
 DIIS: error= 9.94D-03 at cycle   5 NSaved=   5.
 NSaved= 5 IEnMin= 5 EnMin= -1165.98698610768     IErMin= 2 ErrMin= 7.70D-03
 ErrMax= 9.94D-03 EMaxC= 1.00D-01 BMatC= 3.62D-02 BMatP= 5.12D-02
 IDIUse=3 WtCom= 9.01D-01 WtEn= 9.94D-02
 Coeff-Com:  0.265D-02 0.188D-01 0.321D+00-0.939D-01 0.751D+00
 Coeff-En:   0.000D+00 0.000D+00 0.375D+00 0.000D+00 0.625D+00
 Coeff:      0.239D-02 0.170D-01 0.327D+00-0.845D-01 0.739D+00
 Gap=     0.191 Goal=   None    Shift=    0.000
 RMSDP=1.32D-03 MaxDP=1.14D-01 DE=-3.05D-01 OVMax= 4.95D-02

 Cycle   6  Pass 1  IDiag  1:
 RMSU=  2.03D-04    CP:  7.14D-01  8.00D-01  1.05D+00  2.78D-01  1.05D+00
 E= -1166.01352494579     Delta-E=       -0.026538838110 Rises=F Damp=F
 DIIS: error= 6.21D-04 at cycle   6 NSaved=   6.
 NSaved= 6 IEnMin= 6 EnMin= -1166.01352494579     IErMin= 6 ErrMin= 6.21D-04
 ErrMax= 6.21D-04 EMaxC= 1.00D-01 BMatC= 7.11D-05 BMatP= 3.62D-02
 IDIUse=3 WtCom= 9.94D-01 WtEn= 6.21D-03
 Coeff-Com:  0.116D-02 0.483D-02 0.141D+00-0.526D-01 0.370D+00 0.536D+00
 Coeff-En:   0.000D+00 0.000D+00 0.000D+00 0.000D+00 0.000D+00 0.100D+01
 Coeff:      0.115D-02 0.480D-02 0.140D+00-0.522D-01 0.368D+00 0.539D+00
 Gap=     0.189 Goal=   None    Shift=    0.000
 RMSDP=2.58D-04 MaxDP=3.52D-02 DE=-2.65D-02 OVMax= 5.00D-03

 Cycle   7  Pass 1  IDiag  1:
 RMSU=  9.13D-05    CP:  7.16D-01  7.92D-01  1.04D+00  2.68D-01  9.99D-01
                    CP:  6.03D-01
 E= -1166.01357077366     Delta-E=       -0.000045827872 Rises=F Damp=F
 DIIS: error= 3.80D-04 at cycle   7 NSaved=   7.
 NSaved= 7 IEnMin= 7 EnMin= -1166.01357077366     IErMin= 7 ErrMin= 3.80D-04
 ErrMax= 3.80D-04 EMaxC= 1.00D-01 BMatC= 3.04D-05 BMatP= 7.11D-05
 IDIUse=3 WtCom= 9.96D-01 WtEn= 3.80D-03
 Coeff-Com:  0.827D-03-0.110D-02 0.438D-01-0.179D-01 0.116D+00 0.367D+00
 Coeff-Com:  0.491D+00
 Coeff-En:   0.000D+00 0.000D+00 0.000D+00 0.000D+00 0.000D+00 0.301D+00
 Coeff-En:   0.699D+00
 Coeff:      0.824D-03-0.110D-02 0.437D-01-0.179D-01 0.115D+00 0.367D+00
 Coeff:      0.492D+00
 Gap=     0.189 Goal=   None    Shift=    0.000
 RMSDP=6.78D-05 MaxDP=6.42D-03 DE=-4.58D-05 OVMax= 1.93D-03

 Cycle   8  Pass 1  IDiag  1:
 RMSU=  1.97D-05    CP:  7.16D-01  7.92D-01  1.05D+00  2.69D-01  9.94D-01
                    CP:  6.82D-01  6.05D-01
 E= -1166.01359788096     Delta-E=       -0.000027107304 Rises=F Damp=F
 DIIS: error= 9.19D-05 at cycle   8 NSaved=   8.
 NSaved= 8 IEnMin= 8 EnMin= -1166.01359788096     IErMin= 8 ErrMin= 9.19D-05
 ErrMax= 9.19D-05 EMaxC= 1.00D-01 BMatC= 2.46D-06 BMatP= 3.04D-05
 IDIUse=1 WtCom= 1.00D+00 WtEn= 0.00D+00
 Coeff-Com:  0.539D-03-0.168D-02 0.104D-01-0.396D-02 0.232D-01 0.169D+00
 Coeff-Com:  0.297D+00 0.506D+00
 Coeff:      0.539D-03-0.168D-02 0.104D-01-0.396D-02 0.232D-01 0.169D+00
 Coeff:      0.297D+00 0.506D+00
 Gap=     0.189 Goal=   None    Shift=    0.000
 RMSDP=2.77D-05 MaxDP=2.08D-03 DE=-2.71D-05 OVMax= 5.75D-04

 Cycle   9  Pass 1  IDiag  1:
 RMSU=  1.03D-05    CP:  7.16D-01  7.90D-01  1.05D+00  2.67D-01  9.95D-01
                    CP:  6.87D-01  6.44D-01  7.60D-01
 E= -1166.01359995820     Delta-E=       -0.000002077235 Rises=F Damp=F
 DIIS: error= 1.16D-05 at cycle   9 NSaved=   9.
 NSaved= 9 IEnMin= 9 EnMin= -1166.01359995820     IErMin= 9 ErrMin= 1.16D-05
 ErrMax= 1.16D-05 EMaxC= 1.00D-01 BMatC= 7.63D-08 BMatP= 2.46D-06
 IDIUse=1 WtCom= 1.00D+00 WtEn= 0.00D+00
 Coeff-Com:  0.209D-03-0.615D-03 0.188D-02-0.727D-03 0.291D-02 0.536D-01
 Coeff-Com:  0.102D+00 0.232D+00 0.609D+00
 Coeff:      0.209D-03-0.615D-03 0.188D-02-0.727D-03 0.291D-02 0.536D-01
 Coeff:      0.102D+00 0.232D+00 0.609D+00
 Gap=     0.189 Goal=   None    Shift=    0.000
 RMSDP=1.03D-05 MaxDP=1.86D-03 DE=-2.08D-06 OVMax= 1.10D-04

 Cycle  10  Pass 1  IDiag  1:
 RMSU=  2.07D-06    CP:  7.16D-01  7.91D-01  1.05D+00  2.68D-01  9.96D-01
                    CP:  6.91D-01  6.35D-01  7.31D-01  8.11D-01
 E= -1166.01360000929     Delta-E=       -0.000000051091 Rises=F Damp=F
 DIIS: error= 4.83D-06 at cycle  10 NSaved=  10.
 NSaved=10 IEnMin=10 EnMin= -1166.01360000929     IErMin=10 ErrMin= 4.83D-06
 ErrMax= 4.83D-06 EMaxC= 1.00D-01 BMatC= 1.51D-08 BMatP= 7.63D-08
 IDIUse=1 WtCom= 1.00D+00 WtEn= 0.00D+00
 Coeff-Com:  0.421D-04-0.117D-03-0.138D-03 0.184D-04-0.839D-03 0.811D-02
 Coeff-Com:  0.172D-01 0.591D-01 0.359D+00 0.558D+00
 Coeff:      0.421D-04-0.117D-03-0.138D-03 0.184D-04-0.839D-03 0.811D-02
 Coeff:      0.172D-01 0.591D-01 0.359D+00 0.558D+00
 Gap=     0.189 Goal=   None    Shift=    0.000
 RMSDP=1.63D-06 MaxDP=1.82D-04 DE=-5.11D-08 OVMax= 3.95D-05

 Cycle  11  Pass 1  IDiag  1:
 RMSU=  8.25D-07    CP:  7.16D-01  7.91D-01  1.05D+00  2.68D-01  9.96D-01
                    CP:  6.91D-01  6.39D-01  7.39D-01  8.03D-01  8.25D-01
 E= -1166.01360002210     Delta-E=       -0.000000012815 Rises=F Damp=F
 DIIS: error= 1.55D-06 at cycle  11 NSaved=  11.
 NSaved=11 IEnMin=11 EnMin= -1166.01360002210     IErMin=11 ErrMin= 1.55D-06
 ErrMax= 1.55D-06 EMaxC= 1.00D-01 BMatC= 7.78D-10 BMatP= 1.51D-08
 IDIUse=1 WtCom= 1.00D+00 WtEn= 0.00D+00
 Coeff-Com:  0.684D-05-0.182D-04-0.177D-03 0.486D-04-0.553D-03 0.101D-02
 Coeff-Com:  0.299D-02 0.141D-01 0.145D+00 0.268D+00 0.570D+00
 Coeff:      0.684D-05-0.182D-04-0.177D-03 0.486D-04-0.553D-03 0.101D-02
 Coeff:      0.299D-02 0.141D-01 0.145D+00 0.268D+00 0.570D+00
 Gap=     0.189 Goal=   None    Shift=    0.000
 RMSDP=6.17D-07 MaxDP=7.54D-05 DE=-1.28D-08 OVMax= 9.96D-06

 Cycle  12  Pass 1  IDiag  1:
 RMSU=  1.86D-07    CP:  7.16D-01  7.91D-01  1.05D+00  2.68D-01  9.96D-01
                    CP:  6.91D-01  6.38D-01  7.42D-01  8.17D-01  8.08D-01
                    CP:  7.13D-01
 E= -1166.01360002268     Delta-E=       -0.000000000579 Rises=F Damp=F
 DIIS: error= 6.09D-07 at cycle  12 NSaved=  12.
 NSaved=12 IEnMin=12 EnMin= -1166.01360002268     IErMin=12 ErrMin= 6.09D-07
 ErrMax= 6.09D-07 EMaxC= 1.00D-01 BMatC= 1.42D-10 BMatP= 7.78D-10
 IDIUse=1 WtCom= 1.00D+00 WtEn= 0.00D+00
 Coeff-Com: -0.208D-05 0.360D-05-0.104D-03 0.342D-04-0.266D-03-0.377D-03
 Coeff-Com: -0.128D-03 0.932D-03 0.438D-01 0.845D-01 0.325D+00 0.547D+00
 Coeff:     -0.208D-05 0.360D-05-0.104D-03 0.342D-04-0.266D-03-0.377D-03
 Coeff:     -0.128D-03 0.932D-03 0.438D-01 0.845D-01 0.325D+00 0.547D+00
 Gap=     0.189 Goal=   None    Shift=    0.000
 RMSDP=4.24D-07 MaxDP=6.61D-05 DE=-5.79D-10 OVMax= 3.46D-06

 Cycle  13  Pass 1  IDiag  1:
 RMSU=  6.90D-08    CP:  7.16D-01  7.91D-01  1.05D+00  2.68D-01  9.96D-01
                    CP:  6.90D-01  6.38D-01  7.42D-01  8.25D-01  8.03D-01
                    CP:  7.53D-01  7.42D-01
 E= -1166.01360002286     Delta-E=       -0.000000000176 Rises=F Damp=F
 DIIS: error= 1.52D-07 at cycle  13 NSaved=  13.
 NSaved=13 IEnMin=13 EnMin= -1166.01360002286     IErMin=13 ErrMin= 1.52D-07
 ErrMax= 1.52D-07 EMaxC= 1.00D-01 BMatC= 1.02D-11 BMatP= 1.42D-10
 IDIUse=1 WtCom= 1.00D+00 WtEn= 0.00D+00
 Coeff-Com: -0.190D-05 0.351D-05-0.275D-04 0.921D-05-0.524D-04-0.221D-03
 Coeff-Com: -0.281D-03-0.965D-03 0.661D-02 0.112D-01 0.829D-01 0.213D+00
 Coeff-Com:  0.688D+00
 Coeff:     -0.190D-05 0.351D-05-0.275D-04 0.921D-05-0.524D-04-0.221D-03
 Coeff:     -0.281D-03-0.965D-03 0.661D-02 0.112D-01 0.829D-01 0.213D+00
 Coeff:      0.688D+00
 Gap=     0.189 Goal=   None    Shift=    0.000
 RMSDP=1.54D-07 MaxDP=2.57D-05 DE=-1.76D-10 OVMax= 7.87D-07

 Cycle  14  Pass 1  IDiag  1:
 RMSU=  1.54D-08    CP:  7.16D-01  7.91D-01  1.05D+00  2.68D-01  9.96D-01
                    CP:  6.90D-01  6.39D-01  7.42D-01  8.23D-01  8.08D-01
                    CP:  7.69D-01  7.57D-01  6.36D-01
 E= -1166.01360002280     Delta-E=        0.000000000059 Rises=F Damp=F
 DIIS: error= 4.32D-08 at cycle  14 NSaved=  14.
 NSaved=14 IEnMin=13 EnMin= -1166.01360002286     IErMin=14 ErrMin= 4.32D-08
 ErrMax= 4.32D-08 EMaxC= 1.00D-01 BMatC= 1.38D-12 BMatP= 1.02D-11
 IDIUse=1 WtCom= 1.00D+00 WtEn= 0.00D+00
 Coeff-Com: -0.960D-06 0.180D-05-0.675D-05 0.208D-05-0.533D-05-0.934D-04
 Coeff-Com: -0.156D-03-0.655D-03-0.844D-03-0.297D-02 0.883D-02 0.542D-01
 Coeff-Com:  0.391D+00 0.551D+00
 Coeff:     -0.960D-06 0.180D-05-0.675D-05 0.208D-05-0.533D-05-0.934D-04
 Coeff:     -0.156D-03-0.655D-03-0.844D-03-0.297D-02 0.883D-02 0.542D-01
 Coeff:      0.391D+00 0.551D+00
 Gap=     0.189 Goal=   None    Shift=    0.000
 RMSDP=1.99D-08 MaxDP=2.44D-06 DE= 5.91D-11 OVMax= 2.69D-07

 Cycle  15  Pass 1  IDiag  1:
 RMSU=  5.76D-09    CP:  7.16D-01  7.91D-01  1.05D+00  2.68D-01  9.96D-01
                    CP:  6.90D-01  6.39D-01  7.42D-01  8.23D-01  8.10D-01
                    CP:  7.73D-01  7.56D-01  6.70D-01  9.42D-01
 E= -1166.01360002283     Delta-E=       -0.000000000030 Rises=F Damp=F
 DIIS: error= 1.09D-08 at cycle  15 NSaved=  15.
 NSaved=15 IEnMin=13 EnMin= -1166.01360002286     IErMin=15 ErrMin= 1.09D-08
 ErrMax= 1.09D-08 EMaxC= 1.00D-01 BMatC= 8.22D-14 BMatP= 1.38D-12
 IDIUse=1 WtCom= 1.00D+00 WtEn= 0.00D+00
 Coeff-Com: -0.232D-06 0.435D-06-0.460D-06 0.698D-07 0.259D-05-0.156D-04
 Coeff-Com: -0.333D-04-0.195D-03-0.999D-03-0.256D-02-0.494D-02 0.187D-02
 Coeff-Com:  0.119D+00 0.271D+00 0.617D+00
 Coeff:     -0.232D-06 0.435D-06-0.460D-06 0.698D-07 0.259D-05-0.156D-04
 Coeff:     -0.333D-04-0.195D-03-0.999D-03-0.256D-02-0.494D-02 0.187D-02
 Coeff:      0.119D+00 0.271D+00 0.617D+00
 Gap=     0.189 Goal=   None    Shift=    0.000
 RMSDP=1.64D-08 MaxDP=2.71D-06 DE=-3.00D-11 OVMax= 8.27D-08

 Cycle  16  Pass 1  IDiag  1:
 RMSU=  1.70D-09    CP:  7.16D-01  7.91D-01  1.05D+00  2.68D-01  9.96D-01
                    CP:  6.90D-01  6.38D-01  7.42D-01  8.23D-01  8.09D-01
                    CP:  7.71D-01  7.59D-01  7.01D-01  9.02D-01  6.82D-01
 E= -1166.01360002279     Delta-E=        0.000000000041 Rises=F Damp=F
 DIIS: error= 3.60D-09 at cycle  16 NSaved=  16.
 NSaved=16 IEnMin=13 EnMin= -1166.01360002286     IErMin=16 ErrMin= 3.60D-09
 ErrMax= 3.60D-09 EMaxC= 1.00D-01 BMatC= 6.65D-15 BMatP= 8.22D-14
 IDIUse=1 WtCom= 1.00D+00 WtEn= 0.00D+00
 Coeff-Com: -0.589D-07 0.116D-06 0.195D-06-0.102D-06 0.163D-05-0.293D-05
 Coeff-Com: -0.820D-05-0.620D-04-0.439D-03-0.108D-02-0.287D-02-0.230D-02
 Coeff-Com:  0.341D-01 0.985D-01 0.308D+00 0.566D+00
 Coeff:     -0.589D-07 0.116D-06 0.195D-06-0.102D-06 0.163D-05-0.293D-05
 Coeff:     -0.820D-05-0.620D-04-0.439D-03-0.108D-02-0.287D-02-0.230D-02
 Coeff:      0.341D-01 0.985D-01 0.308D+00 0.566D+00
 Gap=     0.189 Goal=   None    Shift=    0.000
 RMSDP=3.25D-09 MaxDP=5.08D-07 DE= 4.09D-11 OVMax= 4.25D-08

 SCF Done:  E(RB3LYP) =  -1166.01360002     A.U. after   16 cycles
             Convg  =    0.3250D-08             -V/T =  2.0027
 KE= 1.162833106370D+03 PE=-5.019434330804D+03 EE= 1.551530991090D+03
 Leave Link  502 at Sat Jul 06 01:59:25 2019, MaxMem=  209715200 cpu:     451.0
 (Enter C:\G09W\l601.exe)
 Copying SCF densities to generalized density rwf, IOpCl= 0 IROHF=0.

 **********************************************************************

            Population analysis using the SCF density.

 **********************************************************************

 Orbital symmetries:
       Occupied  (A) (A) (A) (A) (A) (A) (A) (A) (A) (A) (A) (A)
                 (A) (A) (A) (A) (A) (A) (A) (A) (A) (A) (A) (A)
                 (A) (A) (A) (A) (A) (A) (A) (A) (A) (A) (A) (A)
                 (A) (A) (A) (A) (A) (A) (A) (A) (A) (A) (A) (A)
                 (A) (A) (A) (A) (A) (A) (A) (A) (A) (A) (A) (A)
                 (A) (A)
       Virtual   (A) (A) (A) (A) (A) (A) (A) (A) (A) (A) (A) (A)
                 (A) (A) (A) (A) (A) (A) (A) (A) (A) (A) (A) (A)
                 (A) (A) (A) (A) (A) (A) (A) (A) (A) (A) (A) (A)
                 (A) (A) (A) (A) (A) (A) (A) (A) (A) (A) (A) (A)
                 (A) (A) (A) (A) (A) (A) (A) (A) (A) (A) (A) (A)
                 (A) (A) (A) (A) (A) (A) (A) (A) (A) (A) (A) (A)
                 (A) (A) (A) (A) (A) (A) (A) (A) (A) (A) (A) (A)
                 (A) (A) (A) (A) (A) (A) (A) (A) (A) (A) (A) (A)
                 (A) (A) (A) (A) (A) (A) (A) (A) (A) (A) (A) (A)
                 (A) (A) (A) (A) (A) (A) (A) (A) (A) (A) (A) (A)
                 (A) (A) (A) (A) (A) (A) (A) (A) (A) (A) (A) (A)
                 (A) (A) (A) (A) (A) (A) (A) (A) (A) (A) (A) (A)
                 (A) (A) (A) (A) (A) (A) (A) (A) (A) (A) (A) (A)
                 (A) (A) (A) (A) (A) (A) (A) (A) (A) (A) (A) (A)
                 (A) (A) (A) (A) (A) (A) (A) (A) (A) (A) (A) (A)
                 (A) (A) (A) (A) (A) (A) (A) (A) (A) (A) (A) (A)
                 (A) (A) (A) (A) (A) (A) (A) (A) (A) (A) (A) (A)
                 (A) (A) (A) (A) (A) (A) (A) (A) (A) (A) (A) (A)
                 (A) (A) (A) (A) (A) (A) (A) (A) (A) (A) (A) (A)
                 (A) (A) (A) (A) (A) (A) (A) (A) (A) (A) (A) (A)
                 (A) (A) (A) (A) (A) (A) (A) (A) (A) (A) (A) (A)
                 (A) (A) (A) (A) (A) (A) (A) (A) (A) (A) (A) (A)
                 (A) (A) (A) (A) (A) (A) (A) (A) (A) (A) (A) (A)
                 (A) (A) (A) (A) (A) (A) (A) (A) (A) (A) (A) (A)
                 (A) (A) (A) (A) (A) (A) (A) (A) (A) (A) (A) (A)
                 (A) (A) (A) (A) (A) (A) (A) (A) (A) (A) (A) (A)
                 (A) (A) (A) (A) (A) (A) (A) (A) (A) (A) (A) (A)
                 (A) (A) (A) (A) (A) (A) (A) (A) (A) (A) (A) (A)
                 (A) (A) (A) (A) (A) (A) (A) (A) (A) (A) (A) (A)
                 (A) (A) (A) (A) (A) (A) (A) (A) (A) (A) (A) (A)
                 (A) (A) (A) (A) (A) (A) (A)
 The electronic state is 1-A.
 Alpha  occ. eigenvalues -- -101.56333 -19.18073 -19.16642 -19.09666 -14.36853
 Alpha  occ. eigenvalues --  -10.29255 -10.26323 -10.25507 -10.25118 -10.24418
 Alpha  occ. eigenvalues --  -10.23530 -10.22268 -10.20569 -10.20405 -10.20054
 Alpha  occ. eigenvalues --  -10.19667  -9.47767  -7.24239  -7.23230  -7.23228
 Alpha  occ. eigenvalues --   -1.12295  -1.10787  -1.03727  -0.99008  -0.89517
 Alpha  occ. eigenvalues --   -0.87805  -0.80658  -0.78892  -0.77656  -0.74307
 Alpha  occ. eigenvalues --   -0.72695  -0.65384  -0.64152  -0.61891  -0.59382
 Alpha  occ. eigenvalues --   -0.56984  -0.54450  -0.53542  -0.52955  -0.51694
 Alpha  occ. eigenvalues --   -0.50666  -0.50283  -0.48140  -0.46106  -0.45265
 Alpha  occ. eigenvalues --   -0.44139  -0.42997  -0.42217  -0.41827  -0.41216
 Alpha  occ. eigenvalues --   -0.40442  -0.38568  -0.38349  -0.35840  -0.35661
 Alpha  occ. eigenvalues --   -0.33810  -0.32600  -0.30455  -0.29021  -0.27771
 Alpha  occ. eigenvalues --   -0.25674  -0.23369
 Alpha virt. eigenvalues --   -0.04506  -0.03392  -0.02440  -0.02347  -0.01177
 Alpha virt. eigenvalues --   -0.00297   0.00043   0.01107   0.01366   0.01863
 Alpha virt. eigenvalues --    0.01979   0.02665   0.03979   0.04156   0.04358
 Alpha virt. eigenvalues --    0.04963   0.06175   0.06569   0.07138   0.07344
 Alpha virt. eigenvalues --    0.07614   0.08113   0.08254   0.08796   0.09588
 Alpha virt. eigenvalues --    0.09859   0.09973   0.10337   0.10489   0.10799
 Alpha virt. eigenvalues --    0.10913   0.11086   0.11663   0.11768   0.12322
 Alpha virt. eigenvalues --    0.12469   0.12869   0.13168   0.13625   0.13934
 Alpha virt. eigenvalues --    0.14056   0.14438   0.14615   0.15018   0.15282
 Alpha virt. eigenvalues --    0.15503   0.15976   0.16350   0.16617   0.17347
 Alpha virt. eigenvalues --    0.17727   0.18249   0.18649   0.19092   0.19285
 Alpha virt. eigenvalues --    0.19563   0.20585   0.21213   0.21536   0.21849
 Alpha virt. eigenvalues --    0.22447   0.23121   0.23561   0.23768   0.24193
 Alpha virt. eigenvalues --    0.24396   0.25336   0.25841   0.26403   0.27018
 Alpha virt. eigenvalues --    0.27353   0.27509   0.27949   0.28134   0.29121
 Alpha virt. eigenvalues --    0.29220   0.29427   0.30153   0.30525   0.30890
 Alpha virt. eigenvalues --    0.31385   0.31787   0.32093   0.32433   0.32755
 Alpha virt. eigenvalues --    0.33028   0.33676   0.34182   0.34619   0.35659
 Alpha virt. eigenvalues --    0.35949   0.36481   0.36904   0.37155   0.37683
 Alpha virt. eigenvalues --    0.39086   0.40342   0.41547   0.42005   0.42614
 Alpha virt. eigenvalues --    0.43616   0.44081   0.44761   0.47169   0.47713
 Alpha virt. eigenvalues --    0.49222   0.50218   0.50864   0.53341   0.54061
 Alpha virt. eigenvalues --    0.54431   0.55116   0.55427   0.56629   0.57079
 Alpha virt. eigenvalues --    0.57759   0.59251   0.59630   0.60200   0.61103
 Alpha virt. eigenvalues --    0.62013   0.62130   0.63185   0.63676   0.64376
 Alpha virt. eigenvalues --    0.65399   0.65702   0.66590   0.67126   0.68522
 Alpha virt. eigenvalues --    0.69103   0.69693   0.69798   0.71265   0.72689
 Alpha virt. eigenvalues --    0.72820   0.74035   0.75984   0.76273   0.76820
 Alpha virt. eigenvalues --    0.78443   0.80121   0.81905   0.82231   0.82622
 Alpha virt. eigenvalues --    0.84162   0.85394   0.86144   0.86443   0.87075
 Alpha virt. eigenvalues --    0.87842   0.88356   0.88827   0.90074   0.91647
 Alpha virt. eigenvalues --    0.91981   0.93978   0.94341   0.96390   0.96549
 Alpha virt. eigenvalues --    0.97487   0.97961   0.99816   1.00223   1.00313
 Alpha virt. eigenvalues --    1.01421   1.02250   1.03521   1.05497   1.06575
 Alpha virt. eigenvalues --    1.07804   1.08389   1.09397   1.10352   1.12822
 Alpha virt. eigenvalues --    1.13686   1.14993   1.18773   1.19933   1.21454
 Alpha virt. eigenvalues --    1.22547   1.24122   1.25449   1.25478   1.26633
 Alpha virt. eigenvalues --    1.27298   1.27974   1.29642   1.31243   1.34666
 Alpha virt. eigenvalues --    1.36775   1.39399   1.40231   1.42016   1.42185
 Alpha virt. eigenvalues --    1.42970   1.46001   1.46255   1.48578   1.52092
 Alpha virt. eigenvalues --    1.53619   1.54526   1.55016   1.55593   1.58120
 Alpha virt. eigenvalues --    1.58815   1.59870   1.60920   1.62740   1.64311
 Alpha virt. eigenvalues --    1.65334   1.67247   1.67753   1.69674   1.70176
 Alpha virt. eigenvalues --    1.70686   1.72230   1.72977   1.74916   1.75648
 Alpha virt. eigenvalues --    1.76780   1.78070   1.81168   1.81755   1.82262
 Alpha virt. eigenvalues --    1.84081   1.86861   1.88426   1.88679   1.89133
 Alpha virt. eigenvalues --    1.90226   1.91045   1.92748   1.96771   1.97598
 Alpha virt. eigenvalues --    2.00057   2.01704   2.03656   2.04534   2.05650
 Alpha virt. eigenvalues --    2.06889   2.07913   2.08965   2.09808   2.09982
 Alpha virt. eigenvalues --    2.12412   2.16836   2.17136   2.18920   2.20166
 Alpha virt. eigenvalues --    2.21454   2.27162   2.28538   2.28631   2.30365
 Alpha virt. eigenvalues --    2.38361   2.39319   2.43913   2.44666   2.45871
 Alpha virt. eigenvalues --    2.46136   2.47973   2.49434   2.52369   2.52849
 Alpha virt. eigenvalues --    2.53496   2.54992   2.57395   2.59385   2.61222
 Alpha virt. eigenvalues --    2.63165   2.64025   2.64454   2.65530   2.67433
 Alpha virt. eigenvalues --    2.68354   2.71054   2.72939   2.75441   2.76169
 Alpha virt. eigenvalues --    2.78707   2.79415   2.79689   2.82139   2.85704
 Alpha virt. eigenvalues --    2.87199   2.88192   2.88997   2.90642   2.93226
 Alpha virt. eigenvalues --    2.94049   2.95875   2.96358   2.99650   3.01278
 Alpha virt. eigenvalues --    3.03422   3.04441   3.06467   3.10540   3.11105
 Alpha virt. eigenvalues --    3.12243   3.14957   3.16496   3.16832   3.19543
 Alpha virt. eigenvalues --    3.21770   3.24444   3.25849   3.27352   3.31392
 Alpha virt. eigenvalues --    3.39731   3.41540   3.42793   3.48096   3.48958
 Alpha virt. eigenvalues --    3.50421   3.61764   3.62044   3.65049   3.70874
 Alpha virt. eigenvalues --    3.78012   3.78130   3.79975   3.83707   3.94093
 Alpha virt. eigenvalues --    3.98407   4.00841   4.02468   4.06264   4.08733
 Alpha virt. eigenvalues --    4.12889   4.13916   4.17592   4.23224   4.34352
 Alpha virt. eigenvalues --    4.84193   4.85222   5.01578   5.02944   5.07595
 Alpha virt. eigenvalues --    5.10589   5.19293   5.38802   5.44713   5.70263
 Alpha virt. eigenvalues --    5.81459   5.91562   9.81628  23.60769  23.63551
 Alpha virt. eigenvalues --   23.86647  23.93131  23.94010  23.94822  23.96532
 Alpha virt. eigenvalues --   24.06360  24.11839  24.19906  24.20452  25.85099
 Alpha virt. eigenvalues --   26.14178  26.69796  35.66446  49.91705  49.94977
 Alpha virt. eigenvalues --   50.09325 215.81389
          Condensed to atoms (all electrons):
              1          2          3          4          5          6
     1  C   11.254285  -0.480998  -5.116776   1.437377  -0.214406  -1.362788
     2  C   -0.480998  14.604161  -1.168294  -0.725775  -0.959776  -1.863084
     3  C   -5.116776  -1.168294  13.045837  -1.255528  -2.051944   2.339103
     4  C    1.437377  -0.725775  -1.255528  10.667109  -0.324921  -4.571075
     5  C   -0.214406  -0.959776  -2.051944  -0.324921  10.834263  -0.853028
     6  C   -1.362788  -1.863084   2.339103  -4.571075  -0.853028  12.372354
     7  N   -0.216635  -0.407824  -0.063399  -0.025007   0.040482   0.104773
     8  C   -0.301518   0.864172   0.217559  -0.201980  -0.288921   0.325899
     9  C    0.346159  -2.578437  -0.158285   0.099291   0.140239  -0.009960
    10  C   -0.094271  -0.432874  -0.066520   0.037566   0.037324  -0.068896
    11  C   -0.051839   0.498554   0.019173  -0.027846  -0.016102  -0.015146
    12  O   -0.020057   0.069086  -0.012005  -0.009020  -0.006147   0.000238
    13  Cl   0.078654  -0.500723   0.016530   0.023562   0.007138   0.019552
    14  O    0.002030  -0.003142   0.000985   0.000401   0.000182   0.000127
    15  O   -0.002483   0.016940   0.003401   0.271458   0.333958  -0.677077
    16  C    0.055428  -0.043425  -0.177758  -0.192664   0.117949   0.024633
    17  H    0.575172  -0.085349  -0.101223   0.089106   0.038421  -0.179277
    18  H   -0.055671  -0.126410   0.412144  -0.043407   0.081616   0.067301
    19  H    0.044236   0.054756   0.000489   0.517849  -0.204957  -0.082733
    20  H   -0.100069   0.029776   0.074590  -0.160945  -0.140704   0.624743
    21  H   -0.007432  -0.392061   0.017443   0.019535   0.016154   0.039411
    22  H   -0.078700   0.003972   0.098657  -0.004322   0.006413  -0.002243
    23  H    0.099571   0.009790  -0.116338   0.017296   0.033008  -0.015091
    24  H   -0.004631   0.004456  -0.000618   0.035847  -0.036689  -0.017993
    25  H   -0.000673  -0.003940  -0.009576  -0.010674   0.051734   0.008232
    26  H   -0.002780   0.000989   0.001253   0.017083  -0.022746  -0.005597
              7          8          9         10         11         12
     1  C   -0.216635  -0.301518   0.346159  -0.094271  -0.051839  -0.020057
     2  C   -0.407824   0.864172  -2.578437  -0.432874   0.498554   0.069086
     3  C   -0.063399   0.217559  -0.158285  -0.066520   0.019173  -0.012005
     4  C   -0.025007  -0.201980   0.099291   0.037566  -0.027846  -0.009020
     5  C    0.040482  -0.288921   0.140239   0.037324  -0.016102  -0.006147
     6  C    0.104773   0.325899  -0.009960  -0.068896  -0.015146   0.000238
     7  N    7.363429   0.009269  -0.022375  -0.462499   0.256631  -0.019401
     8  C    0.009269  23.805506 -16.320825  -4.742478   4.682031   0.564043
     9  C   -0.022375 -16.320825  24.481450   4.758557  -5.585781  -0.714353
    10  C   -0.462499  -4.742478   4.758557   8.108016  -2.504390   0.274440
    11  C    0.256631   4.682031  -5.585781  -2.504390   9.763989   0.048117
    12  O   -0.019401   0.564043  -0.714353   0.274440   0.048117   8.165866
    13  Cl  -0.060052  -1.338920   1.119745   0.466934  -1.151359  -0.004526
    14  O    0.000462  -0.212206   0.082458   0.054927   0.350602  -0.086037
    15  O    0.001909   0.000668   0.000550   0.001043   0.000011   0.000000
    16  C   -0.002587  -0.009982   0.001069   0.001357  -0.000026  -0.000059
    17  H   -0.019038  -0.022442  -0.008073   0.014766  -0.006368   0.000554
    18  H   -0.012978  -0.027554  -0.007342   0.008776  -0.005093   0.000777
    19  H   -0.009797   0.005996  -0.009177  -0.002494   0.001657   0.000099
    20  H   -0.005875   0.004174  -0.007618  -0.002780   0.001316   0.000179
    21  H    0.423631   0.007938   0.073487   0.017236  -0.070903  -0.005922
    22  H    0.010264  -0.005818  -0.064705   0.362994  -0.003974  -0.062617
    23  H    0.002966   0.012295  -0.033968   0.304789   0.001826  -0.062246
    24  H    0.000615   0.000725   0.000730   0.000580  -0.000031   0.000000
    25  H   -0.000109  -0.000058   0.000021   0.000095  -0.000019  -0.000001
    26  H   -0.000150  -0.001069  -0.000543  -0.000848   0.000003  -0.000001
             13         14         15         16         17         18
     1  C    0.078654   0.002030  -0.002483   0.055428   0.575172  -0.055671
     2  C   -0.500723  -0.003142   0.016940  -0.043425  -0.085349  -0.126410
     3  C    0.016530   0.000985   0.003401  -0.177758  -0.101223   0.412144
     4  C    0.023562   0.000401   0.271458  -0.192664   0.089106  -0.043407
     5  C    0.007138   0.000182   0.333958   0.117949   0.038421   0.081616
     6  C    0.019552   0.000127  -0.677077   0.024633  -0.179277   0.067301
     7  N   -0.060052   0.000462   0.001909  -0.002587  -0.019038  -0.012978
     8  C   -1.338920  -0.212206   0.000668  -0.009982  -0.022442  -0.027554
     9  C    1.119745   0.082458   0.000550   0.001069  -0.008073  -0.007342
    10  C    0.466934   0.054927   0.001043   0.001357   0.014766   0.008776
    11  C   -1.151359   0.350602   0.000011  -0.000026  -0.006368  -0.005093
    12  O   -0.004526  -0.086037   0.000000  -0.000059   0.000554   0.000777
    13  Cl  17.801006   0.051156   0.000003  -0.000006   0.005095   0.006206
    14  O    0.051156   8.084458   0.000000   0.000000   0.000136   0.000151
    15  O    0.000003   0.000000   8.181980   0.210266  -0.001710  -0.002609
    16  C   -0.000006   0.000000   0.210266   5.113068  -0.000617   0.005231
    17  H    0.005095   0.000136  -0.001710  -0.000617   0.547418  -0.006763
    18  H    0.006206   0.000151  -0.002609   0.005231  -0.006763   0.549932
    19  H   -0.001262  -0.000014  -0.018672  -0.001439   0.004996  -0.030318
    20  H   -0.000759  -0.000012  -0.026273   0.001521  -0.027187   0.004097
    21  H    0.130152  -0.000349   0.000065  -0.000755   0.000434   0.001706
    22  H    0.006177   0.001944  -0.000037  -0.000282  -0.000979  -0.000934
    23  H    0.006729   0.002210   0.000089   0.000869   0.001088  -0.000090
    24  H    0.000013   0.000000  -0.035397   0.407478  -0.000395   0.000047
    25  H    0.000004   0.000000  -0.068614   0.402943   0.000067   0.000495
    26  H    0.000006   0.000000  -0.039694   0.403505  -0.000152   0.001060
             19         20         21         22         23         24
     1  C    0.044236  -0.100069  -0.007432  -0.078700   0.099571  -0.004631
     2  C    0.054756   0.029776  -0.392061   0.003972   0.009790   0.004456
     3  C    0.000489   0.074590   0.017443   0.098657  -0.116338  -0.000618
     4  C    0.517849  -0.160945   0.019535  -0.004322   0.017296   0.035847
     5  C   -0.204957  -0.140704   0.016154   0.006413   0.033008  -0.036689
     6  C   -0.082733   0.624743   0.039411  -0.002243  -0.015091  -0.017993
     7  N   -0.009797  -0.005875   0.423631   0.010264   0.002966   0.000615
     8  C    0.005996   0.004174   0.007938  -0.005818   0.012295   0.000725
     9  C   -0.009177  -0.007618   0.073487  -0.064705  -0.033968   0.000730
    10  C   -0.002494  -0.002780   0.017236   0.362994   0.304789   0.000580
    11  C    0.001657   0.001316  -0.070903  -0.003974   0.001826  -0.000031
    12  O    0.000099   0.000179  -0.005922  -0.062617  -0.062246   0.000000
    13  Cl  -0.001262  -0.000759   0.130152   0.006177   0.006729   0.000013
    14  O   -0.000014  -0.000012  -0.000349   0.001944   0.002210   0.000000
    15  O   -0.018672  -0.026273   0.000065  -0.000037   0.000089  -0.035397
    16  C   -0.001439   0.001521  -0.000755  -0.000282   0.000869   0.407478
    17  H    0.004996  -0.027187   0.000434  -0.000979   0.001088  -0.000395
    18  H   -0.030318   0.004097   0.001706  -0.000934  -0.000090   0.000047
    19  H    0.564552  -0.005030  -0.002111  -0.002131   0.000214  -0.009627
    20  H   -0.005030   0.532841  -0.001375   0.000904  -0.003364  -0.000283
    21  H   -0.002111  -0.001375   0.435342  -0.000182  -0.000737   0.000122
    22  H   -0.002131   0.000904  -0.000182   0.633902  -0.102319  -0.000002
    23  H    0.000214  -0.003364  -0.000737  -0.102319   0.633754   0.000050
    24  H   -0.009627  -0.000283   0.000122  -0.000002   0.000050   0.589340
    25  H    0.001460   0.000059   0.000013  -0.000039   0.000038  -0.022989
    26  H   -0.008523   0.000460  -0.000020   0.000120  -0.000047  -0.066910
             25         26
     1  C   -0.000673  -0.002780
     2  C   -0.003940   0.000989
     3  C   -0.009576   0.001253
     4  C   -0.010674   0.017083
     5  C    0.051734  -0.022746
     6  C    0.008232  -0.005597
     7  N   -0.000109  -0.000150
     8  C   -0.000058  -0.001069
     9  C    0.000021  -0.000543
    10  C    0.000095  -0.000848
    11  C   -0.000019   0.000003
    12  O   -0.000001  -0.000001
    13  Cl   0.000004   0.000006
    14  O    0.000000   0.000000
    15  O   -0.068614  -0.039694
    16  C    0.402943   0.403505
    17  H    0.000067  -0.000152
    18  H    0.000495   0.001060
    19  H    0.001460  -0.008523
    20  H    0.000059   0.000460
    21  H    0.000013  -0.000020
    22  H   -0.000039   0.000120
    23  H    0.000038  -0.000047
    24  H   -0.022989  -0.066910
    25  H    0.495571  -0.023407
    26  H   -0.023407   0.589437
 Mulliken atomic charges:
              1
     1  C    0.218816
     2  C   -0.384538
     3  C    0.051100
     4  C    0.319685
     5  C   -0.618539
     6  C   -0.202378
     7  N    0.113294
     8  C   -1.026505
     9  C    0.417685
    10  C   -0.071350
    11  C   -0.185032
    12  O   -0.121008
    13  Cl   0.318945
    14  O   -0.330469
    15  O   -0.149774
    16  C   -0.315717
    17  H    0.182320
    18  H    0.179630
    19  H    0.191982
    20  H    0.207613
    21  H    0.299179
    22  H    0.203938
    23  H    0.207617
    24  H    0.155562
    25  H    0.179368
    26  H    0.158572
 Sum of Mulliken atomic charges =   0.00000
 Mulliken charges with hydrogens summed into heavy atoms:
              1
     1  C    0.401136
     2  C   -0.384538
     3  C    0.230730
     4  C    0.511667
     5  C   -0.618539
     6  C    0.005235
     7  N    0.412473
     8  C   -1.026505
     9  C    0.417685
    10  C    0.340205
    11  C   -0.185032
    12  O   -0.121008
    13  Cl   0.318945
    14  O   -0.330469
    15  O   -0.149774
    16  C    0.177786
 Sum of Mulliken charges with hydrogens summed into heavy atoms =   0.00000
 Electronic spatial extent (au):  <R**2>=           5744.6852
 Charge=              0.0000 electrons
 Dipole moment (field-independent basis, Debye):
    X=             -9.2336    Y=             -1.8229    Z=             -1.0242  Tot=              9.4674
 Quadrupole moment (field-independent basis, Debye-Ang):
   XX=           -119.7153   YY=           -103.8363   ZZ=            -93.6959
   XY=            -12.4149   XZ=              7.2707   YZ=             -1.0727
 Traceless Quadrupole moment (field-independent basis, Debye-Ang):
   XX=            -13.9662   YY=              1.9129   ZZ=             12.0533
   XY=            -12.4149   XZ=              7.2707   YZ=             -1.0727
 Octapole moment (field-independent basis, Debye-Ang**2):
  XXX=           -262.0778  YYY=            -13.5992  ZZZ=              3.4151  XYY=            -13.3496
  XXY=            -31.6144  XXZ=            -37.4386  XZZ=             -5.6656  YZZ=              3.0144
  YYZ=             -1.5618  XYZ=              3.4500
 Hexadecapole moment (field-independent basis, Debye-Ang**3):
 XXXX=          -6463.8464 YYYY=           -765.7114 ZZZZ=           -374.5223 XXXY=           -326.5850
 XXXZ=            210.1264 YYYX=            -75.9287 YYYZ=              2.5058 ZZZX=             -9.1372
 ZZZY=             -2.4318 XXYY=          -1278.7439 XXZZ=          -1086.5987 YYZZ=           -196.7730
 XXYZ=            -14.8941 YYXZ=             -0.3074 ZZXY=              8.0027
 N-N= 1.139056633322D+03 E-N=-5.019434330986D+03  KE= 1.162833106370D+03
 No NMR shielding tensors so no spin-rotation constants.
 Leave Link  601 at Sat Jul 06 01:59:26 2019, MaxMem=  209715200 cpu:       1.0
 (Enter C:\G09W\l607.exe)
 ******************************Gaussian NBO Version 3.1******************************
             N A T U R A L   A T O M I C   O R B I T A L   A N D
          N A T U R A L   B O N D   O R B I T A L   A N A L Y S I S
 ******************************Gaussian NBO Version 3.1******************************
       /RESON  / : Allow strongly delocalized NBO set

 Analyzing the SCF density

 Job title: 8c.log                                                          

 Storage needed:    557184 in NPA,    741596 in NBO ( 209713152 available)


 NATURAL POPULATIONS:  Natural atomic orbital occupancies 
                                                          
   NAO  Atom  No  lang   Type(AO)    Occupancy      Energy
 ----------------------------------------------------------
     1    C    1  S      Cor( 1S)     1.99904     -10.05204
     2    C    1  S      Val( 2S)     0.94326      -0.17432
     3    C    1  S      Ryd( 4S)     0.00131       0.96153
     4    C    1  S      Ryd( 3S)     0.00010       0.59649
     5    C    1  S      Ryd( 5S)     0.00001      23.10327
     6    C    1  px     Val( 2p)     1.09571      -0.07594
     7    C    1  px     Ryd( 4p)     0.00409       1.03832
     8    C    1  px     Ryd( 3p)     0.00024       0.47323
     9    C    1  px     Ryd( 5p)     0.00013       3.01350
    10    C    1  py     Val( 2p)     0.98801      -0.13213
    11    C    1  py     Ryd( 4p)     0.00133       0.58469
    12    C    1  py     Ryd( 3p)     0.00043       0.36459
    13    C    1  py     Ryd( 5p)     0.00002       2.70212
    14    C    1  pz     Val( 2p)     1.13983      -0.07442
    15    C    1  pz     Ryd( 4p)     0.00504       1.08394
    16    C    1  pz     Ryd( 3p)     0.00020       0.47485
    17    C    1  pz     Ryd( 5p)     0.00009       3.02986
    18    C    1  dxy    Ryd( 3d)     0.00060       1.75888
    19    C    1  dxz    Ryd( 3d)     0.00073       2.48744
    20    C    1  dyz    Ryd( 3d)     0.00051       1.68733
    21    C    1  dx2y2  Ryd( 3d)     0.00048       2.16427
    22    C    1  dz2    Ryd( 3d)     0.00062       2.43030

    23    C    2  S      Cor( 1S)     1.99889     -10.09327
    24    C    2  S      Val( 2S)     0.82993      -0.13785
    25    C    2  S      Ryd( 3S)     0.00124       0.90071
    26    C    2  S      Ryd( 4S)     0.00010       0.97671
    27    C    2  S      Ryd( 5S)     0.00002      22.80523
    28    C    2  px     Val( 2p)     0.88522      -0.05277
    29    C    2  px     Ryd( 4p)     0.00640       1.32801
    30    C    2  px     Ryd( 3p)     0.00012       0.65130
    31    C    2  px     Ryd( 5p)     0.00011       3.10194
    32    C    2  py     Val( 2p)     1.08006      -0.13897
    33    C    2  py     Ryd( 4p)     0.00415       0.67289
    34    C    2  py     Ryd( 3p)     0.00018       0.52611
    35    C    2  py     Ryd( 5p)     0.00003       2.74736
    36    C    2  pz     Val( 2p)     1.09732      -0.08692
    37    C    2  pz     Ryd( 4p)     0.00331       1.05396
    38    C    2  pz     Ryd( 3p)     0.00023       0.52127
    39    C    2  pz     Ryd( 5p)     0.00022       3.03198
    40    C    2  dxy    Ryd( 3d)     0.00057       1.84574
    41    C    2  dxz    Ryd( 3d)     0.00147       2.58524
    42    C    2  dyz    Ryd( 3d)     0.00061       1.69109
    43    C    2  dx2y2  Ryd( 3d)     0.00076       2.13596
    44    C    2  dz2    Ryd( 3d)     0.00080       2.42296

    45    C    3  S      Cor( 1S)     1.99905     -10.05343
    46    C    3  S      Val( 2S)     0.94078      -0.17512
    47    C    3  S      Ryd( 4S)     0.00154       0.95071
    48    C    3  S      Ryd( 3S)     0.00013       0.76875
    49    C    3  S      Ryd( 5S)     0.00001      22.93563
    50    C    3  px     Val( 2p)     1.08058      -0.07516
    51    C    3  px     Ryd( 4p)     0.00391       0.99077
    52    C    3  px     Ryd( 3p)     0.00026       0.47440
    53    C    3  px     Ryd( 5p)     0.00014       3.02448
    54    C    3  py     Val( 2p)     0.98146      -0.13291
    55    C    3  py     Ryd( 4p)     0.00122       0.56064
    56    C    3  py     Ryd( 3p)     0.00039       0.37733
    57    C    3  py     Ryd( 5p)     0.00003       2.70575
    58    C    3  pz     Val( 2p)     1.15619      -0.07702
    59    C    3  pz     Ryd( 4p)     0.00578       1.10319
    60    C    3  pz     Ryd( 3p)     0.00015       0.47488
    61    C    3  pz     Ryd( 5p)     0.00008       3.04748
    62    C    3  dxy    Ryd( 3d)     0.00055       1.75630
    63    C    3  dxz    Ryd( 3d)     0.00075       2.51201
    64    C    3  dyz    Ryd( 3d)     0.00049       1.68670
    65    C    3  dx2y2  Ryd( 3d)     0.00047       2.15395
    66    C    3  dz2    Ryd( 3d)     0.00062       2.40667

    67    C    4  S      Cor( 1S)     1.99906     -10.05185
    68    C    4  S      Val( 2S)     0.94184      -0.18047
    69    C    4  S      Ryd( 4S)     0.00138       0.88785
    70    C    4  S      Ryd( 3S)     0.00015       0.69651
    71    C    4  S      Ryd( 5S)     0.00002      23.12008
    72    C    4  px     Val( 2p)     1.10391      -0.08539
    73    C    4  px     Ryd( 4p)     0.00297       1.01300
    74    C    4  px     Ryd( 3p)     0.00035       0.58102
    75    C    4  px     Ryd( 5p)     0.00011       3.02486
    76    C    4  py     Val( 2p)     1.07546      -0.13929
    77    C    4  py     Ryd( 4p)     0.00184       0.54133
    78    C    4  py     Ryd( 3p)     0.00042       0.34390
    79    C    4  py     Ryd( 5p)     0.00002       2.69782
    80    C    4  pz     Val( 2p)     1.14827      -0.08161
    81    C    4  pz     Ryd( 4p)     0.00472       1.12889
    82    C    4  pz     Ryd( 3p)     0.00024       0.50919
    83    C    4  pz     Ryd( 5p)     0.00010       3.00056
    84    C    4  dxy    Ryd( 3d)     0.00044       1.73906
    85    C    4  dxz    Ryd( 3d)     0.00078       2.49890
    86    C    4  dyz    Ryd( 3d)     0.00050       1.67539
    87    C    4  dx2y2  Ryd( 3d)     0.00043       2.13570
    88    C    4  dz2    Ryd( 3d)     0.00057       2.50758

    89    C    5  S      Cor( 1S)     1.99879     -10.12617
    90    C    5  S      Val( 2S)     0.81752      -0.14052
    91    C    5  S      Ryd( 3S)     0.00100       0.94935
    92    C    5  S      Ryd( 4S)     0.00014       1.13780
    93    C    5  S      Ryd( 5S)     0.00002      22.23499
    94    C    5  px     Val( 2p)     0.77775      -0.05430
    95    C    5  px     Ryd( 4p)     0.00748       1.15806
    96    C    5  px     Ryd( 3p)     0.00025       0.81627
    97    C    5  px     Ryd( 5p)     0.00009       2.70104
    98    C    5  py     Val( 2p)     0.95563      -0.13745
    99    C    5  py     Ryd( 3p)     0.00090       0.64352
   100    C    5  py     Ryd( 4p)     0.00021       0.68515
   101    C    5  py     Ryd( 5p)     0.00005       2.33849
   102    C    5  pz     Val( 2p)     1.09202      -0.08667
   103    C    5  pz     Ryd( 4p)     0.00525       1.25235
   104    C    5  pz     Ryd( 3p)     0.00023       0.77958
   105    C    5  pz     Ryd( 5p)     0.00014       2.50494
   106    C    5  dxy    Ryd( 3d)     0.00254       1.69352
   107    C    5  dxz    Ryd( 3d)     0.00156       2.60779
   108    C    5  dyz    Ryd( 3d)     0.00071       1.68661
   109    C    5  dx2y2  Ryd( 3d)     0.00157       2.05131
   110    C    5  dz2    Ryd( 3d)     0.00103       2.45360

   111    C    6  S      Cor( 1S)     1.99907     -10.04731
   112    C    6  S      Val( 2S)     0.94451      -0.17702
   113    C    6  S      Ryd( 3S)     0.00148       0.97886
   114    C    6  S      Ryd( 4S)     0.00011       1.25052
   115    C    6  S      Ryd( 5S)     0.00001      22.40477
   116    C    6  px     Val( 2p)     1.08941      -0.07387
   117    C    6  px     Ryd( 4p)     0.00516       1.01140
   118    C    6  px     Ryd( 3p)     0.00031       0.57333
   119    C    6  px     Ryd( 5p)     0.00013       2.94825
   120    C    6  py     Val( 2p)     1.02779      -0.13037
   121    C    6  py     Ryd( 4p)     0.00129       0.56369
   122    C    6  py     Ryd( 3p)     0.00031       0.33265
   123    C    6  py     Ryd( 5p)     0.00002       2.65160
   124    C    6  pz     Val( 2p)     1.14836      -0.07806
[...]
   167. RY*(   3) N   7                  0.00176     0.63685   
   168. RY*(   4) N   7                  0.00106     0.92841   
   169. RY*(   5) N   7                  0.00075     0.98373   
   170. RY*(   6) N   7                  0.00065     1.36511   
   171. RY*(   7) N   7                  0.00030     1.82991   
   172. RY*(   8) N   7                  0.00027     1.48570   
   173. RY*(   9) N   7                  0.00011     2.18906   
   174. RY*(  10) N   7                  0.00006     1.99271   
   175. RY*(  11) N   7                  0.00005     2.35477   
   176. RY*(  12) N   7                  0.00002     2.31663   
   177. RY*(  13) N   7                  0.00003     3.90895   
   178. RY*(  14) N   7                  0.00000     3.81999   
   179. RY*(  15) N   7                  0.00000     3.85959   
   180. RY*(  16) N   7                  0.00001     2.17923   
   181. RY*(  17) N   7                  0.00000    35.20455   
   182. RY*(   1) C   8                  0.00641     1.15641   
   183. RY*(   2) C   8                  0.00374     1.43330   
   184. RY*(   3) C   8                  0.00291     1.16205   
   185. RY*(   4) C   8                  0.00131     0.87574   
   186. RY*(   5) C   8                  0.00080     1.03576   
   187. RY*(   6) C   8                  0.00044     1.49937   
   188. RY*(   7) C   8                  0.00034     1.66755   
   189. RY*(   8) C   8                  0.00027     1.83141   
   190. RY*(   9) C   8                  0.00023     2.30168   
   191. RY*(  10) C   8                  0.00021     2.30093   
   192. RY*(  11) C   8                  0.00010     4.55643   
   193. RY*(  12) C   8                  0.00007     2.51122   
   194. RY*(  13) C   8                  0.00007     1.05967   
   195. RY*(  14) C   8                  0.00004     2.54968   
   196. RY*(  15) C   8                  0.00002     1.95209   
   197. RY*(  16) C   8                  0.00001     2.66406   
   198. RY*(  17) C   8                  0.00001    17.39497   
   199. RY*(   1) C   9                  0.00673     0.92436   
   200. RY*(   2) C   9                  0.00436     1.19422   
   201. RY*(   3) C   9                  0.00209     1.22952   
   202. RY*(   4) C   9                  0.00105     1.15171   
   203. RY*(   5) C   9                  0.00082     1.37045   
   204. RY*(   6) C   9                  0.00078     1.12474   
   205. RY*(   7) C   9                  0.00040     1.30999   
   206. RY*(   8) C   9                  0.00035     1.84448   
   207. RY*(   9) C   9                  0.00018     2.91499   
   208. RY*(  10) C   9                  0.00014     0.87111   
   209. RY*(  11) C   9                  0.00008     2.00691   
   210. RY*(  12) C   9                  0.00004     1.48586   
   211. RY*(  13) C   9                  0.00004     0.64623   
   212. RY*(  14) C   9                  0.00001     2.39564   
   213. RY*(  15) C   9                  0.00002     1.85899   
   214. RY*(  16) C   9                  0.00001    22.39595   
   215. RY*(  17) C   9                  0.00000     2.69780   
   216. RY*(   1) C  10                  0.00416     1.01188   
   217. RY*(   2) C  10                  0.00190     0.87521   
   218. RY*(   3) C  10                  0.00190     1.72695   
   219. RY*(   4) C  10                  0.00073     1.44030   
   220. RY*(   5) C  10                  0.00052     1.49880   
   221. RY*(   6) C  10                  0.00047     1.22867   
   222. RY*(   7) C  10                  0.00031     0.76138   
   223. RY*(   8) C  10                  0.00016     2.09212   
   224. RY*(   9) C  10                  0.00012     1.75630   
   225. RY*(  10) C  10                  0.00010     0.73297   
   226. RY*(  11) C  10                  0.00006     1.29870   
   227. RY*(  12) C  10                  0.00006     2.25144   
   228. RY*(  13) C  10                  0.00003     2.25541   
   229. RY*(  14) C  10                  0.00003     1.35173   
   230. RY*(  15) C  10                  0.00000    22.33073   
   231. RY*(  16) C  10                  0.00000     3.17025   
   232. RY*(  17) C  10                  0.00000     1.65728   
   233. RY*(   1) C  11                  0.01489     1.13968   
   234. RY*(   2) C  11                  0.01162     1.61664   
   235. RY*(   3) C  11                  0.00700     1.60687   
   236. RY*(   4) C  11                  0.00375     1.80077   
   237. RY*(   5) C  11                  0.00237     1.66438   
   238. RY*(   6) C  11                  0.00158     1.42885   
   239. RY*(   7) C  11                  0.00083     1.54123   
   240. RY*(   8) C  11                  0.00040     0.67164   
   241. RY*(   9) C  11                  0.00018     1.81650   
   242. RY*(  10) C  11                  0.00011     3.72885   
   243. RY*(  11) C  11                  0.00004     1.99089   
   244. RY*(  12) C  11                  0.00001     2.67436   
   245. RY*(  13) C  11                  0.00001     2.09775   
   246. RY*(  14) C  11                  0.00001     1.12032   
   247. RY*(  15) C  11                  0.00001    18.64651   
   248. RY*(  16) C  11                  0.00001     2.31352   
   249. RY*(  17) C  11                  0.00001     0.45686   
   250. RY*(   1) O  12                  0.00398     0.46263   
   251. RY*(   2) O  12                  0.00209     0.92668   
   252. RY*(   3) O  12                  0.00126     1.04648   
   253. RY*(   4) O  12                  0.00073     1.12044   
   254. RY*(   5) O  12                  0.00054     1.23267   
   255. RY*(   6) O  12                  0.00018     1.30075   
   256. RY*(   7) O  12                  0.00015     2.67787   
   257. RY*(   8) O  12                  0.00005     1.15323   
   258. RY*(   9) O  12                  0.00005     1.46851   
   259. RY*(  10) O  12                  0.00004     3.78946   
   260. RY*(  11) O  12                  0.00002     2.75655   
   261. RY*(  12) O  12                  0.00002     3.08634   
   262. RY*(  13) O  12                  0.00001     4.53433   
   263. RY*(  14) O  12                  0.00001     3.26449   
   264. RY*(  15) O  12                  0.00001     4.36316   
   265. RY*(  16) O  12                  0.00000     4.85072   
   266. RY*(  17) O  12                  0.00000    49.38606   
   267. RY*(   1)Cl  13                  0.00528     0.60127   
   268. RY*(   2)Cl  13                  0.00254     0.60248   
   269. RY*(   3)Cl  13                  0.00075     0.66562   
   270. RY*(   4)Cl  13                  0.00036     0.43207   
   271. RY*(   5)Cl  13                  0.00011     0.71753   
   272. RY*(   6)Cl  13                  0.00009     0.63660   
   273. RY*(   7)Cl  13                  0.00008     2.00638   
   274. RY*(   8)Cl  13                  0.00004     0.93269   
   275. RY*(   9)Cl  13                  0.00005     0.74524   
   276. RY*(  10)Cl  13                  0.00003     1.30345   
   277. RY*(  11)Cl  13                  0.00002     0.83992   
   278. RY*(  12)Cl  13                  0.00000    24.67664   
   279. RY*(  13)Cl  13                  0.00000     3.16643   
   280. RY*(  14)Cl  13                  0.00000    24.85523   
   281. RY*(  15)Cl  13                  0.00000     3.12020   
   282. RY*(  16)Cl  13                  0.00000    24.84157   
   283. RY*(  17)Cl  13                  0.00001     0.92743   
   284. RY*(  18)Cl  13                  0.00000    16.96967   
   285. RY*(  19)Cl  13                  0.00000   208.09629   
   286. RY*(  20)Cl  13                  0.00000     2.47393   
   287. RY*(  21)Cl  13                  0.00001     0.89420   
   288. RY*(   1) O  14                  0.00274     0.84529   
   289. RY*(   2) O  14                  0.00123     0.63335   
   290. RY*(   3) O  14                  0.00091     1.14785   
   291. RY*(   4) O  14                  0.00017     1.07635   
   292. RY*(   5) O  14                  0.00010     5.00849   
   293. RY*(   6) O  14                  0.00006     1.75253   
   294. RY*(   7) O  14                  0.00004     1.39867   
   295. RY*(   8) O  14                  0.00003     1.09905   
   296. RY*(   9) O  14                  0.00000     4.25292   
   297. RY*(  10) O  14                  0.00000     3.51390   
   298. RY*(  11) O  14                  0.00000    49.35617   
   299. RY*(  12) O  14                  0.00000     4.96420   
   300. RY*(  13) O  14                  0.00001     3.28765   
   301. RY*(  14) O  14                  0.00000     3.13169   
   302. RY*(  15) O  14                  0.00000     2.41172   
   303. RY*(  16) O  14                  0.00001     1.74444   
   304. RY*(  17) O  14                  0.00000     2.91700   
   305. RY*(   1) O  15                  0.00448     0.62035   
   306. RY*(   2) O  15                  0.00360     0.72640   
   307. RY*(   3) O  15                  0.00093     1.28203   
   308. RY*(   4) O  15                  0.00067     0.64840   
   309. RY*(   5) O  15                  0.00025     1.80123   
   310. RY*(   6) O  15                  0.00019     2.58953   
   311. RY*(   7) O  15                  0.00012     1.36117   
   312. RY*(   8) O  15                  0.00004     1.42562   
   313. RY*(   9) O  15                  0.00003     1.08242   
   314. RY*(  10) O  15                  0.00004     2.55447   
   315. RY*(  11) O  15                  0.00001     5.21711   
   316. RY*(  12) O  15                  0.00000     4.95593   
   317. RY*(  13) O  15                  0.00000    49.04452   
   318. RY*(  14) O  15                  0.00000     4.98719   
   319. RY*(  15) O  15                  0.00000     3.05921   
   320. RY*(  16) O  15                  0.00001     3.10549   
   321. RY*(  17) O  15                  0.00000     2.80629   
   322. RY*(   1) C  16                  0.00291     1.24219   
   323. RY*(   2) C  16                  0.00207     1.38948   
   324. RY*(   3) C  16                  0.00152     0.83238   
   325. RY*(   4) C  16                  0.00047     1.29892   
   326. RY*(   5) C  16                  0.00034     0.56710   
   327. RY*(   6) C  16                  0.00013     1.33228   
   328. RY*(   7) C  16                  0.00001     0.71105   
   329. RY*(   8) C  16                  0.00001     1.00306   
   330. RY*(   9) C  16                  0.00001     2.40740   
   331. RY*(  10) C  16                  0.00000    23.36541   
   332. RY*(  11) C  16                  0.00000     1.38226   
   333. RY*(  12) C  16                  0.00001     2.25145   
   334. RY*(  13) C  16                  0.00001     1.40534   
   335. RY*(  14) C  16                  0.00001     1.31356   
   336. RY*(  15) C  16                  0.00000     2.34906   
   337. RY*(  16) C  16                  0.00001     1.75856   
   338. RY*(  17) C  16                  0.00000     1.98249   
   339. RY*(   1) H  17                  0.00080     0.90122   
   340. RY*(   2) H  17                  0.00021     1.90814   
   341. RY*(   3) H  17                  0.00018     1.61320   
   342. RY*(   4) H  17                  0.00012     1.87506   
   343. RY*(   5) H  17                  0.00007     0.52166   
   344. RY*(   6) H  17                  0.00004     2.44577   
   345. RY*(   1) H  18                  0.00092     0.86185   
   346. RY*(   2) H  18                  0.00021     1.82944   
   347. RY*(   3) H  18                  0.00020     1.76305   
   348. RY*(   4) H  18                  0.00013     1.63274   
   349. RY*(   5) H  18                  0.00005     0.85179   
   350. RY*(   6) H  18                  0.00005     2.38593   
   351. RY*(   1) H  19                  0.00085     0.69279   
   352. RY*(   2) H  19                  0.00023     1.58232   
   353. RY*(   3) H  19                  0.00019     2.22367   
   354. RY*(   4) H  19                  0.00011     0.73560   
   355. RY*(   5) H  19                  0.00010     1.79169   
   356. RY*(   6) H  19                  0.00004     2.27479   
   357. RY*(   1) H  20                  0.00089     0.92837   
   358. RY*(   2) H  20                  0.00021     1.99762   
   359. RY*(   3) H  20                  0.00016     1.58689   
   360. RY*(   4) H  20                  0.00013     1.84810   
   361. RY*(   5) H  20                  0.00003     0.49165   
   362. RY*(   6) H  20                  0.00004     2.39253   
   363. RY*(   1) H  21                  0.00150     0.71492   
   364. RY*(   2) H  21                  0.00068     1.64002   
   365. RY*(   3) H  21                  0.00042     1.50537   
   366. RY*(   4) H  21                  0.00023     1.59496   
   367. RY*(   5) H  21                  0.00013     1.57885   
   368. RY*(   6) H  21                  0.00006     2.52923   
   369. RY*(   1) H  22                  0.00132     0.58543   
   370. RY*(   2) H  22                  0.00032     1.82597   
   371. RY*(   3) H  22                  0.00014     2.24272   
   372. RY*(   4) H  22                  0.00012     1.44063   
   373. RY*(   5) H  22                  0.00010     1.52382   
   374. RY*(   6) H  22                  0.00008     1.81291   
   375. RY*(   1) H  23                  0.00125     0.59959   
   376. RY*(   2) H  23                  0.00034     1.83057   
   377. RY*(   3) H  23                  0.00014     2.41721   
   378. RY*(   4) H  23                  0.00011     1.78051   
   379. RY*(   5) H  23                  0.00010     1.34129   
   380. RY*(   6) H  23                  0.00007     1.42484   
   381. RY*(   1) H  24                  0.00144     0.43977   
   382. RY*(   2) H  24                  0.00026     1.79692   
   383. RY*(   3) H  24                  0.00014     1.73255   
   384. RY*(   4) H  24                  0.00013     1.99930   
   385. RY*(   5) H  24                  0.00003     0.88851   
   386. RY*(   6) H  24                  0.00002     2.23450   
   387. RY*(   1) H  25                  0.00056     0.43920   
   388. RY*(   2) H  25                  0.00017     1.70540   
   389. RY*(   3) H  25                  0.00014     1.90494   
   390. RY*(   4) H  25                  0.00010     2.01857   
   391. RY*(   5) H  25                  0.00004     1.33952   
   392. RY*(   6) H  25                  0.00002     1.55670   
   393. RY*(   1) H  26                  0.00146     0.44117   
   394. RY*(   2) H  26                  0.00026     1.79776   
   395. RY*(   3) H  26                  0.00015     1.78162   
   396. RY*(   4) H  26                  0.00013     1.92533   
   397. RY*(   5) H  26                  0.00003     0.87754   
   398. RY*(   6) H  26                  0.00002     2.26396   
   399. BD*(   1) C   1 - C   2          0.02663     0.54035   
   400. BD*(   1) C   1 - C   6          0.01194     0.56750   
   401. BD*(   2) C   1 - C   6          0.31093     0.00758  404(v),409(v),150(g),66(g)
                                                    67(g)
   402. BD*(   1) C   1 - H  17          0.01247     0.41631   
   403. BD*(   1) C   2 - C   3          0.02715     0.55019   
   404. BD*(   2) C   2 - C   3          0.38240     0.00060  409(v),401(v),99(g),415(v)
                                                    414(v),116(v),65(v)
   405. BD*(   1) C   2 - N   7          0.02932     0.37617   
   406. BD*(   1) C   3 - C   4          0.01310     0.55330   
   407. BD*(   1) C   3 - H  18          0.01278     0.41478   
   408. BD*(   1) C   4 - C   5          0.02899     0.53672   
   409. BD*(   2) C   4 - C   5          0.38559     0.00010  404(v),401(v),116(g),150(v)
                                                    133(g)
   410. BD*(   1) C   4 - H  19          0.01337     0.41753   
   411. BD*(   1) C   5 - C   6          0.02273     0.53509   
   412. BD*(   1) C   5 - O  15          0.02978     0.34436   
   413. BD*(   1) C   6 - H  20          0.01223     0.42040   
   414. BD*(   1) N   7 - C   8          0.02815     0.46548   
   415. BD*(   1) N   7 - H  21          0.02251     0.36824   
   416. BD*(   1) C   8 - C   9          0.02629     0.59340   
   417. BD*(   2) C   8 - C   9          0.31775     0.00044  426(v),422(v),201(g),423(v)
                                                    267(v),183(g),185(g),165(v)
   418. BD*(   1) C   8 - C  10          0.02939     0.36160   
   419. BD*(   1) C   9 - C  11          0.08051     0.43954   
   420. BD*(   1) C   9 -Cl  13          0.02815     0.14940   
   421. BD*(   1) C  10 - O  12          0.01418     0.26177   
   422. BD*(   1) C  10 - H  22          0.02267     0.36408   
   423. BD*(   1) C  10 - H  23          0.02265     0.36208   
   424. BD*(   1) C  11 - O  12          0.12104     0.31432  421(g),418(v),234(g),420(v)
                                                    416(v),239(g),242(g)
   425. BD*(   1) C  11 - O  14          0.01268     0.64372   
   426. BD*(   2) C  11 - O  14          0.29005     0.01839  417(v),235(g),289(g),240(g)
                                                    301(g)
   427. BD*(   1) O  15 - C  16          0.00915     0.26302   
   428. BD*(   1) C  16 - H  24          0.01821     0.35667   
   429. BD*(   1) C  16 - H  25          0.00875     0.37766   
   430. BD*(   1) C  16 - H  26          0.01824     0.35654   
       -------------------------------
              Total Lewis  121.37043  ( 97.8794%)
        Valence non-Lewis    2.38980  (  1.9273%)
        Rydberg non-Lewis    0.23977  (  0.1934%)
       -------------------------------
            Total unit  1  124.00000  (100.0000%)
           Charge unit  1    0.00000
 Leave Link  607 at Sat Jul 06 08:44:56 2019, MaxMem=  209715200 cpu:       5.0
 (Enter C:\G09W\l9999.exe)
 1|1|UNPC-CCSC-2005544|FOpt|RB3LYP|6-311++G(d,p)|C11H10Cl1N1O3|EDUARDO.
 MELO|06-Jul-2019|0||#p opt b3lyp/6-311++g(d,p) pop=nbo geom=connectivi
 ty||8c.log||0,1|C,-1.625869574,-0.8734315039,1.3950558934|C,-0.8757469
 167,-0.6190157399,0.2394644184|C,-1.5253971015,-0.1447515294,-0.897316
 2831|C,-2.8984067109,0.1052465507,-0.8845164235|C,-3.6404618936,-0.152
 1490482,0.2714378186|C,-2.9934228126,-0.6531396181,1.4092509801|N,0.52
 55670302,-0.8862225896,0.2314214484|C,1.5093465928,0.0160167124,0.0010
 950875|C,2.8475435697,-0.1838579156,-0.0077708909|C,1.2775106428,1.485
 6764439,-0.2467328735|C,3.5515588836,1.0730064797,-0.2434241728|O,2.57
 95165108,2.0562996091,-0.3871391023|Cl,3.6532455031,-1.6915850468,0.26
 06314927|O,4.7215362392,1.3190314313,-0.3160242333|O,-4.9815492786,0.0
 427310303,0.3901915422|C,-5.7026031304,0.5435445459,-0.7302256232|H,-1
 .1280002829,-1.2405932466,2.2856619071|H,-0.965516431,0.0102230308,-1.
 8119928965|H,-3.3731107576,0.4759333912,-1.7826807916|H,-3.5817983773,
 -0.8495595504,2.2970749319|H,0.8282333913,-1.8087084846,0.5144549495|H
 ,0.709928316,1.6802994711,-1.1591120923|H,0.7615085791,1.9578449263,0.
 5949133552|H,-5.6406452895,-0.1418689701,-1.5820080012|H,-6.7381518586
 ,0.6215467161,-0.4046538668|H,-5.3400638436,1.5333109046,-1.027104574|
 |Version=IA32W-G09RevA.02|State=1-A|HF=-1166.0181468|RMSD=5.883e-009|R
 MSF=1.187e-005|Dipole=-3.474583,-0.64266,-0.1627001|Quadrupole=-11.535
 0038,2.3291928,9.205811,-10.4774153,7.1839572,-1.8521337|PG=C01 [X(C11
 H10Cl1N1O3)]||@


 ON A CLEAR DISK YOU CAN SEEK FOREVER.
 Job cpu time:  0 days  6 hours 53 minutes 10.0 seconds.
 File lengths (MBytes):  RWF=    115 Int=      0 D2E=      0 Chk=     11 Scr=      1
 Normal termination of Gaussian 09 at Sat Jul 06 08:44:56 2019.
