 Entering Link 1 = C:\G09W\l1.exe PID=      5156.
  
 Copyright (c) 1988,1990,1992,1993,1995,1998,2003,2009, Gaussian, Inc.
                  All Rights Reserved.
  
 This is part of the Gaussian(R) 09 program.  It is based on
 the Gaussian(R) 03 system (copyright 2003, Gaussian, Inc.),
 the Gaussian(R) 98 system (copyright 1998, Gaussian, Inc.),
 the Gaussian(R) 94 system (copyright 1995, Gaussian, Inc.),
 the Gaussian 92(TM) system (copyright 1992, Gaussian, Inc.),
 the Gaussian 90(TM) system (copyright 1990, Gaussian, Inc.),
 the Gaussian 88(TM) system (copyright 1988, Gaussian, Inc.),
 the Gaussian 86(TM) system (copyright 1986, Carnegie Mellon
 University), and the Gaussian 82(TM) system (copyright 1983,
 Carnegie Mellon University). Gaussian is a federally registered
 trademark of Gaussian, Inc.
  
 This software contains proprietary and confidential information,
 including trade secrets, belonging to Gaussian, Inc.
  
 This software is provided under written license and may be
 used, copied, transmitted, or stored only in accord with that
 written license.
  
 The following legend is applicable only to US Government
 contracts under FAR:
  
                    RESTRICTED RIGHTS LEGEND
  
 Use, reproduction and disclosure by the US Government is
 subject to restrictions as set forth in subparagraphs (a)
 and (c) of the Commercial Computer Software - Restricted
 Rights clause in FAR 52.227-19.
  
 Gaussian, Inc.
 340 Quinnipiac St., Bldg. 40, Wallingford CT 06492
  
  
 ---------------------------------------------------------------
 Warning -- This program may not be used in any manner that
 competes with the business of Gaussian, Inc. or will provide
 assistance to any competitor of Gaussian, Inc.  The licensee
 of this program is prohibited from giving any competitor of
 Gaussian, Inc. access to this program.  By using this program,
 the user acknowledges that Gaussian, Inc. is engaged in the
 business of creating and licensing software in the field of
 computational chemistry and represents and warrants to the
 licensee that it is not a competitor of Gaussian, Inc. and that
 it will not use this program in any manner prohibited above.
 ---------------------------------------------------------------
  

 Cite this work as:
 Gaussian 09, Revision A.02,
 M. J. Frisch, G. W. Trucks, H. B. Schlegel, G. E. Scuseria, 
 M. A. Robb, J. R. Cheeseman, G. Scalmani, V. Barone, B. Mennucci, 
 G. A. Petersson, H. Nakatsuji, M. Caricato, X. Li, H. P. Hratchian, 
 A. F. Izmaylov, J. Bloino, G. Zheng, J. L. Sonnenberg, M. Hada, 
 M. Ehara, K. Toyota, R. Fukuda, J. Hasegawa, M. Ishida, T. Nakajima, 
 Y. Honda, O. Kitao, H. Nakai, T. Vreven, J. A. Montgomery, Jr., 
 J. E. Peralta, F. Ogliaro, M. Bearpark, J. J. Heyd, E. Brothers, 
 K. N. Kudin, V. N. Staroverov, R. Kobayashi, J. Normand, 
 K. Raghavachari, A. Rendell, J. C. Burant, S. S. Iyengar, J. Tomasi, 
 M. Cossi, N. Rega, J. M. Millam, M. Klene, J. E. Knox, J. B. Cross, 
 V. Bakken, C. Adamo, J. Jaramillo, R. Gomperts, R. E. Stratmann, 
 O. Yazyev, A. J. Austin, R. Cammi, C. Pomelli, J. W. Ochterski, 
 R. L. Martin, K. Morokuma, V. G. Zakrzewski, G. A. Voth, 
 P. Salvador, J. J. Dannenberg, S. Dapprich, A. D. Daniels, 
 O. Farkas, J. B. Foresman, J. V. Ortiz, J. Cioslowski, 
 and D. J. Fox, Gaussian, Inc., Wallingford CT, 2009.
 
 ******************************************
 Gaussian 09:  IA32W-G09RevA.02 11-Jun-2009
                06-Jul-2019 
 ******************************************
 %nprocshared=4
 Will use up to    4 processors via shared memory.
 %mem=1600MB
 ----------------------------------------------------
 #p opt b3lyp/6-311++g(d,p) pop=nbo geom=connectivity
 ----------------------------------------------------
 1/14=-1,18=20,19=15,26=3,38=1,57=2/1,3;
 2/9=110,12=2,17=6,18=5,40=1/2;
 3/5=4,6=6,7=1111,11=2,16=1,25=1,30=1,71=1,74=-5/1,2,3;
 4//1;
 5/5=2,38=5/2;
 6/7=2,8=2,9=2,10=2,28=1/1,7;
 7//1,2,3,16;
 1/14=-1,18=20,19=15/3(2);
 2/9=110/2;
 99//99;
 2/9=110/2;
 3/5=4,6=6,7=1111,11=2,16=1,25=1,30=1,71=1,74=-5/1,2,3;
 4/5=5,16=3/1;
 5/5=2,38=5/2;
 7//1,2,3,16;
 1/14=-1,18=20,19=15/3(-5);
 2/9=110/2;
 6/7=2,8=2,9=2,10=2,19=2,28=1/1,7;
 99/9=1/99;
 Leave Link    1 at Sat Jul 06 11:14:16 2019, MaxMem=  209715200 cpu:       1.0
 (Enter C:\G09W\l101.exe)
 -------------------
 Title Card Required
 -------------------
 Symbolic Z-matrix:
 Charge =  0 Multiplicity = 1
 C                    -0.75534  -0.88237  -0.00269 
 C                    -0.19245   0.38724   0.00532 
 C                    -1.04371   1.49258   0.01079 
 C                    -2.41294   1.33684   0.00823 
 C                    -2.9591    0.06538   0.00027 
 C                    -2.1331   -1.03717  -0.00512 
 N                     1.18195   0.66015   0.00902 
 C                     2.27476  -0.13869   0.00322 
 C                     3.54611   0.26742  -0.00262 
 C                     2.29875  -1.64828   0.00612 
 C                     4.4432   -0.88763  -0.00097 
 O                     3.65895  -1.98641   0.0062 
 Cl                    4.11042   1.88863  -0.00777 
 O                     5.61496  -0.93667  -0.00452 
 Br                   -4.84048  -0.15646  -0.00322 
 H                    -0.15636  -1.76802  -0.00737 
 H                    -0.62942   2.4856    0.01723 
 H                    -3.05045   2.20039   0.01246 
 H                    -2.55271  -2.02525  -0.01138 
 H                     1.40578   1.63016   0.00876 
 H                     1.83004  -2.05954   0.89122 
 H                     1.83061  -2.06239  -0.87798 
 
 NAtoms=     22 NQM=     22 NQMF=      0 NMic=      0 NMicF=      0 NTot=     22.
                    Isotopes and Nuclear Properties:
 (Nuclear quadrupole moments (NQMom) in fm**2, nuclear magnetic moments (NMagM)
  in nuclear magnetons)

  Atom         1           2           3           4           5           6           7           8           9          10
 IAtWgt=          12          12          12          12          12          12          14          12          12          12
 AtmWgt=  12.0000000  12.0000000  12.0000000  12.0000000  12.0000000  12.0000000  14.0030740  12.0000000  12.0000000  12.0000000
 NucSpn=           0           0           0           0           0           0           2           0           0           0
 AtZEff=   0.0000000   0.0000000   0.0000000   0.0000000   0.0000000   0.0000000   0.0000000   0.0000000   0.0000000   0.0000000
 NQMom=    0.0000000   0.0000000   0.0000000   0.0000000   0.0000000   0.0000000   2.0440000   0.0000000   0.0000000   0.0000000
 NMagM=    0.0000000   0.0000000   0.0000000   0.0000000   0.0000000   0.0000000   0.4037610   0.0000000   0.0000000   0.0000000

  Atom        11          12          13          14          15          16          17          18          19          20
 IAtWgt=          12          16          35          16          79           1           1           1           1           1
 AtmWgt=  12.0000000  15.9949146  34.9688527  15.9949146  78.9183361   1.0078250   1.0078250   1.0078250   1.0078250   1.0078250
 NucSpn=           0           0           3           0           3           1           1           1           1           1
 AtZEff=   0.0000000   0.0000000   0.0000000   0.0000000   0.0000000   0.0000000   0.0000000   0.0000000   0.0000000   0.0000000
 NQMom=    0.0000000   0.0000000  -8.1650000   0.0000000  31.3000000   0.0000000   0.0000000   0.0000000   0.0000000   0.0000000
 NMagM=    0.0000000   0.0000000   0.8218740   0.0000000   2.1063990   2.7928460   2.7928460   2.7928460   2.7928460   2.7928460

  Atom        21          22
 IAtWgt=           1           1
 AtmWgt=   1.0078250   1.0078250
 NucSpn=           1           1
 AtZEff=   0.0000000   0.0000000
 NQMom=    0.0000000   0.0000000
 NMagM=    2.7928460   2.7928460
 Leave Link  101 at Sat Jul 06 11:14:16 2019, MaxMem=  209715200 cpu:       0.0
 (Enter C:\G09W\l103.exe)

 GradGradGradGradGradGradGradGradGradGradGradGradGradGradGradGradGradGrad
 Berny optimization.
 Initialization pass.
                           ----------------------------
                           !    Initial Parameters    !
                           ! (Angstroms and Degrees)  !
 --------------------------                            --------------------------
 ! Name  Definition              Value          Derivative Info.                !
 --------------------------------------------------------------------------------
 ! R1    R(1,2)                  1.3888         estimate D2E/DX2                !
 ! R2    R(1,6)                  1.3864         estimate D2E/DX2                !
 ! R3    R(1,16)                 1.0692         estimate D2E/DX2                !
 ! R4    R(2,3)                  1.3952         estimate D2E/DX2                !
 ! R5    R(2,7)                  1.4012         estimate D2E/DX2                !
 ! R6    R(3,4)                  1.3781         estimate D2E/DX2                !
 ! R7    R(3,17)                 1.076          estimate D2E/DX2                !
 ! R8    R(4,5)                  1.3838         estimate D2E/DX2                !
 ! R9    R(4,18)                 1.0734         estimate D2E/DX2                !
 ! R10   R(5,6)                  1.3777         estimate D2E/DX2                !
 ! R11   R(5,15)                 1.8944         estimate D2E/DX2                !
 ! R12   R(6,19)                 1.0735         estimate D2E/DX2                !
 ! R13   R(7,8)                  1.3537         estimate D2E/DX2                !
 ! R14   R(7,20)                 0.9955         estimate D2E/DX2                !
 ! R15   R(8,9)                  1.3347         estimate D2E/DX2                !
 ! R16   R(8,10)                 1.5098         estimate D2E/DX2                !
 ! R17   R(9,11)                 1.4625         estimate D2E/DX2                !
 ! R18   R(9,13)                 1.7166         estimate D2E/DX2                !
 ! R19   R(10,12)                1.4016         estimate D2E/DX2                !
 ! R20   R(10,21)                1.0827         estimate D2E/DX2                !
 ! R21   R(10,22)                1.0827         estimate D2E/DX2                !
 ! R22   R(11,12)                1.35           estimate D2E/DX2                !
 ! R23   R(11,14)                1.1728         estimate D2E/DX2                !
 ! A1    A(2,1,6)              120.3216         estimate D2E/DX2                !
 ! A2    A(2,1,16)             122.0192         estimate D2E/DX2                !
 ! A3    A(6,1,16)             117.6592         estimate D2E/DX2                !
 ! A4    A(1,2,3)              118.4893         estimate D2E/DX2                !
 ! A5    A(1,2,7)              125.1419         estimate D2E/DX2                !
 ! A6    A(3,2,7)              116.3688         estimate D2E/DX2                !
 ! A7    A(2,3,4)              121.111          estimate D2E/DX2                !
 ! A8    A(2,3,17)             119.7537         estimate D2E/DX2                !
 ! A9    A(4,3,17)             119.1353         estimate D2E/DX2                !
 ! A10   A(3,4,5)              119.7354         estimate D2E/DX2                !
 ! A11   A(3,4,18)             119.9467         estimate D2E/DX2                !
 ! A12   A(5,4,18)             120.3179         estimate D2E/DX2                !
 ! A13   A(4,5,6)              119.9149         estimate D2E/DX2                !
 ! A14   A(4,5,15)             119.971          estimate D2E/DX2                !
 ! A15   A(6,5,15)             120.1141         estimate D2E/DX2                !
 ! A16   A(1,6,5)              120.4278         estimate D2E/DX2                !
 ! A17   A(1,6,19)             119.421          estimate D2E/DX2                !
 ! A18   A(5,6,19)             120.1512         estimate D2E/DX2                !
 ! A19   A(2,7,8)              132.6005         estimate D2E/DX2                !
 ! A20   A(2,7,20)             114.2247         estimate D2E/DX2                !
 ! A21   A(8,7,20)             113.1728         estimate D2E/DX2                !
 ! A22   A(7,8,9)              126.1183         estimate D2E/DX2                !
 ! A23   A(7,8,10)             127.0763         estimate D2E/DX2                !
 ! A24   A(9,8,10)             106.8052         estimate D2E/DX2                !
 ! A25   A(8,9,11)             110.1193         estimate D2E/DX2                !
 ! A26   A(8,9,13)             126.9078         estimate D2E/DX2                !
 ! A27   A(11,9,13)            122.9727         estimate D2E/DX2                !
 ! A28   A(8,10,12)            104.8707         estimate D2E/DX2                !
 ! A29   A(8,10,21)            111.9924         estimate D2E/DX2                !
 ! A30   A(8,10,22)            111.962          estimate D2E/DX2                !
 ! A31   A(12,10,21)           109.1742         estimate D2E/DX2                !
 ! A32   A(12,10,22)           109.11           estimate D2E/DX2                !
 ! A33   A(21,10,22)           109.5768         estimate D2E/DX2                !
 ! A34   A(9,11,12)            106.6478         estimate D2E/DX2                !
 ! A35   A(9,11,14)            130.2314         estimate D2E/DX2                !
 ! A36   A(12,11,14)           123.1208         estimate D2E/DX2                !
 ! A37   A(10,12,11)           111.5565         estimate D2E/DX2                !
 ! D1    D(6,1,2,3)             -0.0007         estimate D2E/DX2                !
 ! D2    D(6,1,2,7)            179.9706         estimate D2E/DX2                !
 ! D3    D(16,1,2,3)           179.9871         estimate D2E/DX2                !
 ! D4    D(16,1,2,7)            -0.0416         estimate D2E/DX2                !
 ! D5    D(2,1,6,5)              0.0049         estimate D2E/DX2                !
 ! D6    D(2,1,6,19)           179.9977         estimate D2E/DX2                !
 ! D7    D(16,1,6,5)          -179.9834         estimate D2E/DX2                !
 ! D8    D(16,1,6,19)            0.0094         estimate D2E/DX2                !
 ! D9    D(1,2,3,4)             -0.006          estimate D2E/DX2                !
 ! D10   D(1,2,3,17)           179.9874         estimate D2E/DX2                !
 ! D11   D(7,2,3,4)           -179.9798         estimate D2E/DX2                !
 ! D12   D(7,2,3,17)             0.0136         estimate D2E/DX2                !
 ! D13   D(1,2,7,8)              0.1751         estimate D2E/DX2                !
 ! D14   D(1,2,7,20)           179.6175         estimate D2E/DX2                !
 ! D15   D(3,2,7,8)           -179.8531         estimate D2E/DX2                !
 ! D16   D(3,2,7,20)            -0.4106         estimate D2E/DX2                !
 ! D17   D(2,3,4,5)              0.0084         estimate D2E/DX2                !
 ! D18   D(2,3,4,18)          -179.9953         estimate D2E/DX2                !
 ! D19   D(17,3,4,5)          -179.985          estimate D2E/DX2                !
 ! D20   D(17,3,4,18)            0.0113         estimate D2E/DX2                !
 ! D21   D(3,4,5,6)             -0.0041         estimate D2E/DX2                !
 ! D22   D(3,4,5,15)           179.9973         estimate D2E/DX2                !
 ! D23   D(18,4,5,6)           179.9997         estimate D2E/DX2                !
 ! D24   D(18,4,5,15)            0.001          estimate D2E/DX2                !
 ! D25   D(4,5,6,1)             -0.0025         estimate D2E/DX2                !
 ! D26   D(4,5,6,19)          -179.9953         estimate D2E/DX2                !
 ! D27   D(15,5,6,1)           179.9961         estimate D2E/DX2                !
 ! D28   D(15,5,6,19)            0.0034         estimate D2E/DX2                !
 ! D29   D(2,7,8,9)            179.4373         estimate D2E/DX2                !
 ! D30   D(2,7,8,10)            -0.7545         estimate D2E/DX2                !
 ! D31   D(20,7,8,9)            -0.0096         estimate D2E/DX2                !
 ! D32   D(20,7,8,10)          179.7986         estimate D2E/DX2                !
 ! D33   D(7,8,9,11)           179.7187         estimate D2E/DX2                !
 ! D34   D(7,8,9,13)            -0.1478         estimate D2E/DX2                !
 ! D35   D(10,8,9,11)           -0.1215         estimate D2E/DX2                !
 ! D36   D(10,8,9,13)         -179.988          estimate D2E/DX2                !
 ! D37   D(7,8,10,12)         -179.6351         estimate D2E/DX2                !
 ! D38   D(7,8,10,21)          -61.3582         estimate D2E/DX2                !
 ! D39   D(7,8,10,22)           62.1807         estimate D2E/DX2                !
 ! D40   D(9,8,10,12)            0.2031         estimate D2E/DX2                !
 ! D41   D(9,8,10,21)          118.48           estimate D2E/DX2                !
 ! D42   D(9,8,10,22)         -117.9812         estimate D2E/DX2                !
 ! D43   D(8,9,11,12)           -0.0078         estimate D2E/DX2                !
 ! D44   D(8,9,11,14)         -179.9907         estimate D2E/DX2                !
 ! D45   D(13,9,11,12)         179.8649         estimate D2E/DX2                !
 ! D46   D(13,9,11,14)          -0.118          estimate D2E/DX2                !
 ! D47   D(8,10,12,11)          -0.2159         estimate D2E/DX2                !
 ! D48   D(21,10,12,11)       -120.3849         estimate D2E/DX2                !
 ! D49   D(22,10,12,11)        119.8846         estimate D2E/DX2                !
 ! D50   D(9,11,12,10)           0.1477         estimate D2E/DX2                !
 ! D51   D(14,11,12,10)       -179.8679         estimate D2E/DX2                !
 --------------------------------------------------------------------------------
 Trust Radius=3.00D-01 FncErr=1.00D-07 GrdErr=1.00D-06
 Number of steps in this run= 121 maximum allowed number of steps= 132.
 GradGradGradGradGradGradGradGradGradGradGradGradGradGradGradGradGradGrad

 Leave Link  103 at Sat Jul 06 11:14:16 2019, MaxMem=  209715200 cpu:       0.0
 (Enter C:\G09W\l202.exe)
                          Input orientation:                          
 ---------------------------------------------------------------------
 Center     Atomic      Atomic             Coordinates (Angstroms)
 Number     Number       Type             X           Y           Z
 ---------------------------------------------------------------------
      1          6           0       -0.755342   -0.882365   -0.002692
      2          6           0       -0.192453    0.387238    0.005320
      3          6           0       -1.043711    1.492583    0.010790
      4          6           0       -2.412935    1.336844    0.008225
      5          6           0       -2.959100    0.065377    0.000271
      6          6           0       -2.133097   -1.037174   -0.005124
      7          7           0        1.181947    0.660153    0.009023
      8          6           0        2.274760   -0.138694    0.003224
      9          6           0        3.546110    0.267422   -0.002616
     10          6           0        2.298751   -1.648280    0.006116
     11          6           0        4.443196   -0.887627   -0.000972
     12          8           0        3.658945   -1.986412    0.006199
     13         17           0        4.110421    1.888625   -0.007771
     14          8           0        5.614964   -0.936671   -0.004517
     15         35           0       -4.840475   -0.156456   -0.003220
     16          1           0       -0.156360   -1.768021   -0.007372
     17          1           0       -0.629420    2.485600    0.017233
     18          1           0       -3.050450    2.200394    0.012456
     19          1           0       -2.552711   -2.025251   -0.011376
     20          1           0        1.405779    1.630162    0.008758
     21          1           0        1.830036   -2.059537    0.891219
     22          1           0        1.830611   -2.062390   -0.877979
 ---------------------------------------------------------------------
                    Distance matrix (angstroms):
                    1          2          3          4          5
     1  C    0.000000
     2  C    1.388812   0.000000
     3  C    2.392429   1.395155   0.000000
     4  C    2.769950   2.415016   1.378055   0.000000
     5  C    2.398911   2.785311   2.388670   1.383831   0.000000
     6  C    1.386427   2.407313   2.754394   2.390491   1.377653
     7  N    2.476406   1.401239   2.376236   3.658017   4.183552
     8  C    3.120032   2.522647   3.697752   4.914440   5.237838
     9  C    4.452471   3.740491   4.750543   6.054255   6.508348
    10  C    3.148680   3.217053   4.586621   5.577719   5.530068
    11  C    5.198541   4.807761   5.980944   7.207974   7.463391
    12  O    4.550267   4.524100   5.849650   6.921832   6.928809
    13  Cl   5.599470   4.557308   5.169359   6.546670   7.300851
    14  O    6.370538   5.956419   7.087980   8.343632   8.632421
    15  Br   4.149127   4.679721   4.139437   2.850092   1.894411
    16  H    1.069200   2.155599   3.379240   3.838302   3.349143
    17  H    3.370377   2.143410   1.075993   2.121473   3.359342
    18  H    3.843326   3.384632   2.127910   1.073388   2.137005
    19  H    2.129976   3.375085   3.827888   3.365056   2.129792
    20  H    3.314116   2.024652   2.453351   3.829962   4.636895
    21  H    2.978085   3.295753   4.653078   5.506168   5.314590
    22  H    2.974179   3.297527   4.657196   5.508887   5.314137
                    6          7          8          9         10
     6  C    0.000000
     7  N    3.724330   0.000000
     8  C    4.498504   1.353673   0.000000
     9  C    5.827124   2.396589   1.334652   0.000000
    10  C    4.473796   2.564395   1.509779   2.286022   0.000000
    11  C    6.577994   3.609912   2.294130   1.462499   2.275365
    12  O    5.869321   3.624891   2.308688   2.256674   1.401592
    13  Cl   6.895058   3.175750   2.734921   1.716617   3.973920
    14  O    7.748713   4.711865   3.434209   2.393742   3.391721
    15  Br   2.847027   6.077546   7.115260   8.397290   7.293434
    16  H    2.107518   2.772609   2.926630   4.225084   2.458066
    17  H    3.830337   2.571648   3.914253   4.728188   5.065893
    18  H    3.365069   4.503947   5.816294   6.873952   6.589862
    19  H    1.073504   4.599944   5.183029   6.515523   4.866117
    20  H    4.431537   0.995499   1.970789   2.537362   3.397880
    21  H    4.189878   2.931724   2.162395   3.026316   1.082697
    22  H    4.186159   2.935946   2.162035   3.022784   1.082712
                   11         12         13         14         15
    11  C    0.000000
    12  O    1.349974   0.000000
    13  Cl   2.796133   3.901274   0.000000
    14  O    1.172799   2.219928   3.200931   0.000000
    15  Br   9.312420   8.694192   9.181553  10.484510   0.000000
    16  H    4.683060   3.821574   5.619295   5.830895   4.953594
    17  H    6.091833   6.195893   4.777353   7.120726   4.971304
    18  H    8.104985   7.908563   7.167683   9.215794   2.959591
    19  H    7.087807   6.211802   7.727598   8.239901   2.954035
    20  H    3.945283   4.261029   2.717014   4.930116   6.496756
    21  H    2.999664   2.033105   4.647184   4.048315   6.994101
    22  H    2.995799   2.032326   4.643847   4.043700   6.992938
                   16         17         18         19         20
    16  H    0.000000
    17  H    4.279916   0.000000
    18  H    4.911666   2.437776   0.000000
    19  H    2.410121   4.903840   4.254925   0.000000
    20  H    3.740078   2.207687   4.492567   5.388144   0.000000
    21  H    2.199595   5.241283   6.537460   4.474855   3.817409
    22  H    2.189215   5.247606   6.541327   4.468321   3.821220
                   21         22
    21  H    0.000000
    22  H    1.769200   0.000000
 Stoichiometry    C10H7BrClNO2
 Framework group  C1[X(C10H7BrClNO2)]
 Deg. of freedom    60
 Full point group                 C1      NOp   1
 Largest Abelian subgroup         C1      NOp   1
 Largest concise Abelian subgroup C1      NOp   1
                         Standard orientation:                         
 ---------------------------------------------------------------------
 Center     Atomic      Atomic             Coordinates (Angstroms)
 Number     Number       Type             X           Y           Z
 ---------------------------------------------------------------------
      1          6           0       -0.755342   -0.882365   -0.002692
      2          6           0       -0.192453    0.387238    0.005320
      3          6           0       -1.043711    1.492583    0.010790
      4          6           0       -2.412935    1.336844    0.008225
      5          6           0       -2.959100    0.065377    0.000271
      6          6           0       -2.133097   -1.037174   -0.005124
      7          7           0        1.181947    0.660153    0.009023
      8          6           0        2.274760   -0.138694    0.003224
      9          6           0        3.546110    0.267422   -0.002616
     10          6           0        2.298751   -1.648280    0.006116
     11          6           0        4.443196   -0.887627   -0.000972
     12          8           0        3.658945   -1.986412    0.006199
     13         17           0        4.110421    1.888625   -0.007771
     14          8           0        5.614964   -0.936671   -0.004517
     15         35           0       -4.840475   -0.156456   -0.003220
     16          1           0       -0.156360   -1.768021   -0.007372
     17          1           0       -0.629420    2.485600    0.017233
     18          1           0       -3.050450    2.200394    0.012456
     19          1           0       -2.552711   -2.025251   -0.011376
     20          1           0        1.405779    1.630162    0.008758
     21          1           0        1.830036   -2.059537    0.891219
     22          1           0        1.830611   -2.062390   -0.877979
 ---------------------------------------------------------------------
 Rotational constants (GHZ):      1.4180148      0.1275269      0.1170903
 Leave Link  202 at Sat Jul 06 11:14:16 2019, MaxMem=  209715200 cpu:       0.0
 (Enter C:\G09W\l301.exe)
 Standard basis: 6-311++G(d,p) (5D, 7F)
 Ernie: Thresh=  0.10000D-02 Tol=  0.10000D-05 Strict=F.
 There are   413 symmetry adapted basis functions of A   symmetry.
 Integral buffers will be    262144 words long.
 Raffenetti 2 integral format.
 Two-electron integral symmetry is turned on.
   413 basis functions,   678 primitive gaussians,   430 cartesian basis functions
    71 alpha electrons       71 beta electrons
       nuclear repulsion energy      1295.2337168225 Hartrees.
 IExCor=  402 DFT=T Ex+Corr=B3LYP ExCW=0 ScaHFX=  0.200000
 ScaDFX=  0.800000  0.720000  1.000000  0.810000 ScalE2=  1.000000  1.000000
 IRadAn=      0 IRanWt=     -1 IRanGd=            0 ICorTp=0
 NAtoms=   22 NActive=   22 NUniq=   22 SFac= 7.50D-01 NAtFMM=   80 NAOKFM=F Big=F
 Leave Link  301 at Sat Jul 06 11:14:16 2019, MaxMem=  209715200 cpu:       0.0
 (Enter C:\G09W\l302.exe)
 NPDir=0 NMtPBC=     1 NCelOv=     1 NCel=       1 NClECP=     1 NCelD=      1
         NCelK=      1 NCelE2=     1 NClLst=     1 CellRange=     0.0.
 One-electron integrals computed using PRISM.
 NBasis=   413 RedAO= T  NBF=   413
 NBsUse=   411 1.00D-06 NBFU=   411
 Precomputing XC quadrature grid using
 IXCGrd= 2 IRadAn=           0 IRanWt=          -1 IRanGd=           0 AccXCQ= 1.00D-10.
 NRdTot=    1428 NPtTot=      185736 NUsed=      192394 NTot=      192410
 NSgBfM=   415   415   415   416   416 NAtAll=    22    22.
 Leave Link  302 at Sat Jul 06 11:14:17 2019, MaxMem=  209715200 cpu:       1.0
 (Enter C:\G09W\l303.exe)
 DipDrv:  MaxL=1.
 Leave Link  303 at Sat Jul 06 11:14:17 2019, MaxMem=  209715200 cpu:       0.0
 (Enter C:\G09W\l401.exe)
 Harris functional with IExCor=  402 diagonalized for initial guess.
 ExpMin= 3.50D-02 ExpMax= 4.40D+05 ExpMxC= 1.51D+04 IAcc=3 IRadAn=         0 AccDes= 0.00D+00
 HarFok:  IExCor=  402 AccDes= 0.00D+00 IRadAn=         0 IDoV= 1
 ScaDFX=  1.000000  1.000000  1.000000  1.000000
 FoFCou: FMM=F IPFlag=           0 FMFlag=      100000 FMFlg1=           0
         NFxFlg=           0 DoJE=T BraDBF=F KetDBF=T FulRan=T
         Omega=  0.000000  0.000000  1.000000  0.000000  0.000000 ICntrl=     500 IOpCl=  0
         NMat0=    1 NMatS0=    1 NMatT0=    0 NMatD0=    1 NMtDS0=    0 NMtDT0=    0
         I1Cent=           4 NGrid=           0.
 Petite list used in FoFCou.
 Harris En= -3625.15299444416    
 Initial guess orbital symmetries:
       Occupied  (A) (A) (A) (A) (A) (A) (A) (A) (A) (A) (A) (A)
                 (A) (A) (A) (A) (A) (A) (A) (A) (A) (A) (A) (A)
                 (A) (A) (A) (A) (A) (A) (A) (A) (A) (A) (A) (A)
                 (A) (A) (A) (A) (A) (A) (A) (A) (A) (A) (A) (A)
                 (A) (A) (A) (A) (A) (A) (A) (A) (A) (A) (A) (A)
                 (A) (A) (A) (A) (A) (A) (A) (A) (A) (A) (A)
       Virtual   (A) (A) (A) (A) (A) (A) (A) (A) (A) (A) (A) (A)
                 (A) (A) (A) (A) (A) (A) (A) (A) (A) (A) (A) (A)
                 (A) (A) (A) (A) (A) (A) (A) (A) (A) (A) (A) (A)
                 (A) (A) (A) (A) (A) (A) (A) (A) (A) (A) (A) (A)
                 (A) (A) (A) (A) (A) (A) (A) (A) (A) (A) (A) (A)
                 (A) (A) (A) (A) (A) (A) (A) (A) (A) (A) (A) (A)
                 (A) (A) (A) (A) (A) (A) (A) (A) (A) (A) (A) (A)
                 (A) (A) (A) (A) (A) (A) (A) (A) (A) (A) (A) (A)
                 (A) (A) (A) (A) (A) (A) (A) (A) (A) (A) (A) (A)
                 (A) (A) (A) (A) (A) (A) (A) (A) (A) (A) (A) (A)
                 (A) (A) (A) (A) (A) (A) (A) (A) (A) (A) (A) (A)
                 (A) (A) (A) (A) (A) (A) (A) (A) (A) (A) (A) (A)
                 (A) (A) (A) (A) (A) (A) (A) (A) (A) (A) (A) (A)
                 (A) (A) (A) (A) (A) (A) (A) (A) (A) (A) (A) (A)
                 (A) (A) (A) (A) (A) (A) (A) (A) (A) (A) (A) (A)
                 (A) (A) (A) (A) (A) (A) (A) (A) (A) (A) (A) (A)
                 (A) (A) (A) (A) (A) (A) (A) (A) (A) (A) (A) (A)
                 (A) (A) (A) (A) (A) (A) (A) (A) (A) (A) (A) (A)
                 (A) (A) (A) (A) (A) (A) (A) (A) (A) (A) (A) (A)
                 (A) (A) (A) (A) (A) (A) (A) (A) (A) (A) (A) (A)
                 (A) (A) (A) (A) (A) (A) (A) (A) (A) (A) (A) (A)
                 (A) (A) (A) (A) (A) (A) (A) (A) (A) (A) (A) (A)
                 (A) (A) (A) (A) (A) (A) (A) (A) (A) (A) (A) (A)
                 (A) (A) (A) (A) (A) (A) (A) (A) (A) (A) (A) (A)
                 (A) (A) (A) (A) (A) (A) (A) (A) (A) (A) (A) (A)
                 (A) (A) (A) (A) (A) (A) (A) (A) (A) (A) (A) (A)
                 (A) (A) (A) (A) (A) (A) (A) (A) (A) (A) (A) (A)
                 (A) (A) (A) (A) (A) (A) (A) (A) (A) (A) (A) (A)
                 (A) (A) (A) (A)
 The electronic state of the initial guess is 1-A.
 Leave Link  401 at Sat Jul 06 11:14:22 2019, MaxMem=  209715200 cpu:       5.0
 (Enter C:\G09W\l502.exe)
 Closed shell SCF:
 Requested convergence on RMS density matrix=1.00D-08 within 128 cycles.
 Requested convergence on MAX density matrix=1.00D-06.
 Requested convergence on             energy=1.00D-06.
 No special actions if energy rises.
 Using DIIS extrapolation, IDIIS=  1040.
 Integral symmetry usage will be decided dynamically.
       192206 words used for storage of precomputed grid.
 IEnd=      770289 IEndB=      770289 NGot=   209715200 MDV=   209146882
 LenX=   209146882 LenY=   208961541
 Fock matrices will be formed incrementally for  20 cycles.

 Cycle   1  Pass 1  IDiag  1:
 FoFCou: FMM=F IPFlag=           0 FMFlag=      100000 FMFlg1=           0
         NFxFlg=           0 DoJE=F BraDBF=F KetDBF=F FulRan=T
         Omega=  0.000000  0.000000  1.000000  0.000000  0.000000 ICntrl=       0 IOpCl=  0
         NMat0=    1 NMatS0=    1 NMatT0=    0 NMatD0=    1 NMtDS0=    0 NMtDT0=    0
         I1Cent=           0 NGrid=           0.
 Symmetry not used in FoFCou.
 E= -3624.54405336029    
 DIIS: error= 7.99D-02 at cycle   1 NSaved=   1.
 NSaved= 1 IEnMin= 1 EnMin= -3624.54405336029     IErMin= 1 ErrMin= 7.99D-02
 ErrMax= 7.99D-02 EMaxC= 1.00D-01 BMatC= 2.04D+00 BMatP= 2.04D+00
 IDIUse=3 WtCom= 2.01D-01 WtEn= 7.99D-01
 Coeff-Com:  0.100D+01
 Coeff-En:   0.100D+01
 Coeff:      0.100D+01
 Gap=     0.350 Goal=   None    Shift=    0.000
 GapD=    0.350 DampG=1.000 DampE=0.500 DampFc=0.5000 IDamp=-1.
 Damping current iteration by 5.00D-01
 RMSDP=2.70D-02 MaxDP=2.09D+00              OVMax= 2.83D-01

 Cycle   2  Pass 1  IDiag  1:
 RMSU=  9.55D-03    CP:  9.98D-01
 E= -3624.68922610785     Delta-E=       -0.145172747562 Rises=F Damp=T
 DIIS: error= 4.07D-02 at cycle   2 NSaved=   2.
 NSaved= 2 IEnMin= 2 EnMin= -3624.68922610785     IErMin= 2 ErrMin= 4.07D-02
 ErrMax= 4.07D-02 EMaxC= 1.00D-01 BMatC= 2.58D-01 BMatP= 2.04D+00
 IDIUse=3 WtCom= 5.93D-01 WtEn= 4.07D-01
 Coeff-Com: -0.109D+00 0.111D+01
 Coeff-En:   0.302D+00 0.698D+00
 Coeff:      0.583D-01 0.942D+00
 Gap=     0.313 Goal=   None    Shift=    0.000
 RMSDP=1.44D-02 MaxDP=9.05D-01 DE=-1.45D-01 OVMax= 2.09D-01

 Cycle   3  Pass 1  IDiag  1:
 RMSU=  6.75D-03    CP:  8.97D-01  3.78D-01
 E= -3624.89489316766     Delta-E=       -0.205667059814 Rises=F Damp=F
 DIIS: error= 1.92D-02 at cycle   3 NSaved=   3.
 NSaved= 3 IEnMin= 3 EnMin= -3624.89489316766     IErMin= 3 ErrMin= 1.92D-02
 ErrMax= 1.92D-02 EMaxC= 1.00D-01 BMatC= 1.32D-01 BMatP= 2.58D-01
 IDIUse=3 WtCom= 8.08D-01 WtEn= 1.92D-01
 Coeff-Com: -0.124D+00 0.503D+00 0.621D+00
 Coeff-En:   0.000D+00 0.000D+00 0.100D+01
 Coeff:     -0.100D+00 0.406D+00 0.694D+00
 Gap=     0.199 Goal=   None    Shift=    0.000
 RMSDP=8.62D-03 MaxDP=7.87D-01 DE=-2.06D-01 OVMax= 1.63D-01

 Cycle   4  Pass 1  IDiag  1:
 RMSU=  3.23D-03    CP:  8.94D-01  8.98D-01  7.91D-01
 E= -3624.90779189481     Delta-E=       -0.012898727146 Rises=F Damp=F
 DIIS: error= 2.12D-02 at cycle   4 NSaved=   4.
 NSaved= 4 IEnMin= 4 EnMin= -3624.90779189481     IErMin= 3 ErrMin= 1.92D-02
 ErrMax= 2.12D-02 EMaxC= 1.00D-01 BMatC= 1.14D-01 BMatP= 1.32D-01
 IDIUse=3 WtCom= 7.88D-01 WtEn= 2.12D-01
 Coeff-Com: -0.596D-01 0.173D+00 0.494D+00 0.393D+00
 Coeff-En:   0.000D+00 0.000D+00 0.475D+00 0.525D+00
 Coeff:     -0.470D-01 0.136D+00 0.490D+00 0.421D+00
 Gap=     0.180 Goal=   None    Shift=    0.000
 RMSDP=5.17D-03 MaxDP=5.33D-01 DE=-1.29D-02 OVMax= 8.86D-02

 Cycle   5  Pass 1  IDiag  1:
 RMSU=  1.31D-03    CP:  8.67D-01  6.56D-01  8.41D-01  3.41D-01
 E= -3624.99653649347     Delta-E=       -0.088744598663 Rises=F Damp=F
 DIIS: error= 2.50D-03 at cycle   5 NSaved=   5.
 NSaved= 5 IEnMin= 5 EnMin= -3624.99653649347     IErMin= 5 ErrMin= 2.50D-03
 ErrMax= 2.50D-03 EMaxC= 1.00D-01 BMatC= 1.97D-03 BMatP= 1.14D-01
 IDIUse=3 WtCom= 9.75D-01 WtEn= 2.50D-02
 Coeff-Com: -0.886D-02 0.273D-01 0.174D+00 0.201D+00 0.606D+00
 Coeff-En:   0.000D+00 0.000D+00 0.000D+00 0.000D+00 0.100D+01
 Coeff:     -0.864D-02 0.266D-01 0.170D+00 0.196D+00 0.616D+00
 Gap=     0.173 Goal=   None    Shift=    0.000
 RMSDP=1.01D-03 MaxDP=5.45D-02 DE=-8.87D-02 OVMax= 1.51D-02

 Cycle   6  Pass 1  IDiag  1:
 RMSU=  3.13D-04    CP:  8.68D-01  6.57D-01  8.99D-01  4.33D-01  6.87D-01
 E= -3624.99834624747     Delta-E=       -0.001809753996 Rises=F Damp=F
 DIIS: error= 8.19D-04 at cycle   6 NSaved=   6.
 NSaved= 6 IEnMin= 6 EnMin= -3624.99834624747     IErMin= 6 ErrMin= 8.19D-04
 ErrMax= 8.19D-04 EMaxC= 1.00D-01 BMatC= 2.12D-04 BMatP= 1.97D-03
 IDIUse=3 WtCom= 9.92D-01 WtEn= 8.19D-03
 Coeff-Com:  0.113D-02-0.173D-02 0.350D-01 0.575D-01 0.338D+00 0.570D+00
 Coeff-En:   0.000D+00 0.000D+00 0.000D+00 0.000D+00 0.309D-01 0.969D+00
 Coeff:      0.113D-02-0.172D-02 0.347D-01 0.570D-01 0.336D+00 0.573D+00
 Gap=     0.173 Goal=   None    Shift=    0.000
 RMSDP=2.65D-04 MaxDP=2.24D-02 DE=-1.81D-03 OVMax= 5.99D-03

 Cycle   7  Pass 1  IDiag  1:
 RMSU=  8.41D-05    CP:  8.70D-01  6.58D-01  8.91D-01  4.38D-01  6.91D-01
                    CP:  5.63D-01
 E= -3624.99851918820     Delta-E=       -0.000172940732 Rises=F Damp=F
 DIIS: error= 2.86D-04 at cycle   7 NSaved=   7.
 NSaved= 7 IEnMin= 7 EnMin= -3624.99851918820     IErMin= 7 ErrMin= 2.86D-04
 ErrMax= 2.86D-04 EMaxC= 1.00D-01 BMatC= 3.17D-05 BMatP= 2.12D-04
 IDIUse=3 WtCom= 9.97D-01 WtEn= 2.86D-03
 Coeff-Com:  0.152D-02-0.337D-02 0.181D-02 0.102D-01 0.136D+00 0.341D+00
 Coeff-Com:  0.513D+00
 Coeff-En:   0.000D+00 0.000D+00 0.000D+00 0.000D+00 0.000D+00 0.787D-01
 Coeff-En:   0.921D+00
 Coeff:      0.152D-02-0.336D-02 0.180D-02 0.102D-01 0.135D+00 0.341D+00
 Coeff:      0.514D+00
 Gap=     0.173 Goal=   None    Shift=    0.000
 RMSDP=1.35D-04 MaxDP=1.51D-02 DE=-1.73D-04 OVMax= 2.27D-03

 Cycle   8  Pass 1  IDiag  1:
 RMSU=  1.83D-05    CP:  8.69D-01  6.58D-01  8.92D-01  4.28D-01  7.26D-01
                    CP:  6.73D-01  5.66D-01
 E= -3624.99854843201     Delta-E=       -0.000029243808 Rises=F Damp=F
 DIIS: error= 9.74D-05 at cycle   8 NSaved=   8.
 NSaved= 8 IEnMin= 8 EnMin= -3624.99854843201     IErMin= 8 ErrMin= 9.74D-05
 ErrMax= 9.74D-05 EMaxC= 1.00D-01 BMatC= 1.99D-06 BMatP= 3.17D-05
 IDIUse=1 WtCom= 1.00D+00 WtEn= 0.00D+00
 Coeff-Com:  0.655D-03-0.150D-02-0.114D-02 0.451D-03 0.433D-01 0.128D+00
 Coeff-Com:  0.270D+00 0.561D+00
 Coeff:      0.655D-03-0.150D-02-0.114D-02 0.451D-03 0.433D-01 0.128D+00
 Coeff:      0.270D+00 0.561D+00
 Gap=     0.173 Goal=   None    Shift=    0.000
 RMSDP=1.61D-05 MaxDP=1.24D-03 DE=-2.92D-05 OVMax= 4.48D-04

 Cycle   9  Pass 1  IDiag  1:
 RMSU=  5.75D-06    CP:  8.69D-01  6.58D-01  8.91D-01  4.28D-01  7.26D-01
                    CP:  6.64D-01  5.78D-01  7.90D-01
 E= -3624.99855008563     Delta-E=       -0.000001653624 Rises=F Damp=F
 DIIS: error= 3.16D-05 at cycle   9 NSaved=   9.
 NSaved= 9 IEnMin= 9 EnMin= -3624.99855008563     IErMin= 9 ErrMin= 3.16D-05
 ErrMax= 3.16D-05 EMaxC= 1.00D-01 BMatC= 1.78D-07 BMatP= 1.99D-06
 IDIUse=1 WtCom= 1.00D+00 WtEn= 0.00D+00
 Coeff-Com:  0.246D-03-0.576D-03-0.593D-03-0.603D-03 0.121D-01 0.389D-01
 Coeff-Com:  0.103D+00 0.303D+00 0.545D+00
 Coeff:      0.246D-03-0.576D-03-0.593D-03-0.603D-03 0.121D-01 0.389D-01
 Coeff:      0.103D+00 0.303D+00 0.545D+00
 Gap=     0.173 Goal=   None    Shift=    0.000
 RMSDP=6.28D-06 MaxDP=3.83D-04 DE=-1.65D-06 OVMax= 1.32D-04

 Cycle  10  Pass 1  IDiag  1:
 RMSU=  2.22D-06    CP:  8.69D-01  6.57D-01  8.91D-01  4.28D-01  7.26D-01
                    CP:  6.67D-01  5.94D-01  7.80D-01  7.27D-01
 E= -3624.99855023491     Delta-E=       -0.000000149281 Rises=F Damp=F
 DIIS: error= 6.55D-06 at cycle  10 NSaved=  10.
 NSaved=10 IEnMin=10 EnMin= -3624.99855023491     IErMin=10 ErrMin= 6.55D-06
 ErrMax= 6.55D-06 EMaxC= 1.00D-01 BMatC= 1.11D-08 BMatP= 1.78D-07
 IDIUse=1 WtCom= 1.00D+00 WtEn= 0.00D+00
 Coeff-Com:  0.589D-04-0.141D-03-0.158D-03-0.336D-03 0.163D-02 0.596D-02
 Coeff-Com:  0.230D-01 0.903D-01 0.266D+00 0.613D+00
 Coeff:      0.589D-04-0.141D-03-0.158D-03-0.336D-03 0.163D-02 0.596D-02
 Coeff:      0.230D-01 0.903D-01 0.266D+00 0.613D+00
 Gap=     0.173 Goal=   None    Shift=    0.000
 RMSDP=2.41D-06 MaxDP=1.62D-04 DE=-1.49D-07 OVMax= 3.33D-05

 Cycle  11  Pass 1  IDiag  1:
 RMSU=  8.22D-07    CP:  8.69D-01  6.57D-01  8.91D-01  4.28D-01  7.26D-01
                    CP:  6.65D-01  5.97D-01  7.91D-01  7.49D-01  9.43D-01
 E= -3624.99855024433     Delta-E=       -0.000000009421 Rises=F Damp=F
 DIIS: error= 1.63D-06 at cycle  11 NSaved=  11.
 NSaved=11 IEnMin=11 EnMin= -3624.99855024433     IErMin=11 ErrMin= 1.63D-06
 ErrMax= 1.63D-06 EMaxC= 1.00D-01 BMatC= 1.47D-09 BMatP= 1.11D-08
 IDIUse=1 WtCom= 1.00D+00 WtEn= 0.00D+00
 Coeff-Com:  0.554D-05-0.145D-04-0.413D-04-0.119D-03-0.298D-03-0.453D-03
 Coeff-Com:  0.195D-02 0.163D-01 0.825D-01 0.325D+00 0.575D+00
 Coeff:      0.554D-05-0.145D-04-0.413D-04-0.119D-03-0.298D-03-0.453D-03
 Coeff:      0.195D-02 0.163D-01 0.825D-01 0.325D+00 0.575D+00
 Gap=     0.173 Goal=   None    Shift=    0.000
 RMSDP=6.77D-07 MaxDP=6.57D-05 DE=-9.42D-09 OVMax= 1.25D-05

 Cycle  12  Pass 1  IDiag  1:
 RMSU=  2.52D-07    CP:  8.69D-01  6.57D-01  8.91D-01  4.28D-01  7.26D-01
                    CP:  6.65D-01  5.97D-01  7.89D-01  7.50D-01  9.44D-01
                    CP:  7.21D-01
 E= -3624.99855024556     Delta-E=       -0.000000001222 Rises=F Damp=F
 DIIS: error= 5.86D-07 at cycle  12 NSaved=  12.
 NSaved=12 IEnMin=12 EnMin= -3624.99855024556     IErMin=12 ErrMin= 5.86D-07
 ErrMax= 5.86D-07 EMaxC= 1.00D-01 BMatC= 1.78D-10 BMatP= 1.47D-09
 IDIUse=1 WtCom= 1.00D+00 WtEn= 0.00D+00
 Coeff-Com: -0.426D-05 0.885D-05-0.954D-05-0.255D-04-0.292D-03-0.608D-03
 Coeff-Com: -0.987D-03-0.558D-03 0.147D-01 0.106D+00 0.300D+00 0.582D+00
 Coeff:     -0.426D-05 0.885D-05-0.954D-05-0.255D-04-0.292D-03-0.608D-03
 Coeff:     -0.987D-03-0.558D-03 0.147D-01 0.106D+00 0.300D+00 0.582D+00
 Gap=     0.173 Goal=   None    Shift=    0.000
 RMSDP=2.14D-07 MaxDP=1.40D-05 DE=-1.22D-09 OVMax= 3.25D-06

 Cycle  13  Pass 1  IDiag  1:
 RMSU=  6.86D-08    CP:  8.69D-01  6.57D-01  8.91D-01  4.28D-01  7.26D-01
                    CP:  6.65D-01  5.97D-01  7.90D-01  7.52D-01  9.45D-01
                    CP:  7.29D-01  8.40D-01
 E= -3624.99855024560     Delta-E=       -0.000000000047 Rises=F Damp=F
 DIIS: error= 3.76D-07 at cycle  13 NSaved=  13.
 NSaved=13 IEnMin=13 EnMin= -3624.99855024560     IErMin=13 ErrMin= 3.76D-07
 ErrMax= 3.76D-07 EMaxC= 1.00D-01 BMatC= 1.90D-11 BMatP= 1.78D-10
 IDIUse=1 WtCom= 1.00D+00 WtEn= 0.00D+00
 Coeff-Com: -0.289D-05 0.625D-05-0.251D-05-0.176D-05-0.146D-03-0.324D-03
 Coeff-Com: -0.812D-03-0.206D-02-0.323D-03 0.219D-01 0.923D-01 0.308D+00
 Coeff-Com:  0.582D+00
 Coeff:     -0.289D-05 0.625D-05-0.251D-05-0.176D-05-0.146D-03-0.324D-03
 Coeff:     -0.812D-03-0.206D-02-0.323D-03 0.219D-01 0.923D-01 0.308D+00
 Coeff:      0.582D+00
 Gap=     0.173 Goal=   None    Shift=    0.000
 RMSDP=5.32D-08 MaxDP=2.97D-06 DE=-4.73D-11 OVMax= 2.16D-06

 Cycle  14  Pass 1  IDiag  1:
 RMSU=  1.86D-08    CP:  8.69D-01  6.57D-01  8.91D-01  4.28D-01  7.26D-01
                    CP:  6.65D-01  5.97D-01  7.90D-01  7.51D-01  9.50D-01
                    CP:  7.37D-01  8.36D-01  8.47D-01
 E= -3624.99855024564     Delta-E=       -0.000000000038 Rises=F Damp=F
 DIIS: error= 1.14D-07 at cycle  14 NSaved=  14.
 NSaved=14 IEnMin=14 EnMin= -3624.99855024564     IErMin=14 ErrMin= 1.14D-07
 ErrMax= 1.14D-07 EMaxC= 1.00D-01 BMatC= 2.85D-12 BMatP= 1.90D-11
 IDIUse=1 WtCom= 1.00D+00 WtEn= 0.00D+00
 Coeff-Com: -0.121D-05 0.261D-05-0.106D-05 0.146D-05-0.586D-04-0.136D-03
 Coeff-Com: -0.389D-03-0.121D-02-0.150D-02 0.272D-02 0.261D-01 0.135D+00
 Coeff-Com:  0.360D+00 0.480D+00
 Coeff:     -0.121D-05 0.261D-05-0.106D-05 0.146D-05-0.586D-04-0.136D-03
 Coeff:     -0.389D-03-0.121D-02-0.150D-02 0.272D-02 0.261D-01 0.135D+00
 Coeff:      0.360D+00 0.480D+00
 Gap=     0.173 Goal=   None    Shift=    0.000
 RMSDP=2.33D-08 MaxDP=1.60D-06 DE=-3.82D-11 OVMax= 5.44D-07

 Cycle  15  Pass 1  IDiag  1:
 RMSU=  8.95D-09    CP:  8.69D-01  6.57D-01  8.91D-01  4.28D-01  7.26D-01
                    CP:  6.65D-01  5.97D-01  7.90D-01  7.51D-01  9.50D-01
                    CP:  7.40D-01  8.51D-01  8.34D-01  6.56D-01
 E= -3624.99855024570     Delta-E=       -0.000000000060 Rises=F Damp=F
 DIIS: error= 3.75D-08 at cycle  15 NSaved=  15.
 NSaved=15 IEnMin=15 EnMin= -3624.99855024570     IErMin=15 ErrMin= 3.75D-08
 ErrMax= 3.75D-08 EMaxC= 1.00D-01 BMatC= 3.41D-13 BMatP= 2.85D-12
 IDIUse=1 WtCom= 1.00D+00 WtEn= 0.00D+00
 Coeff-Com: -0.308D-06 0.677D-06 0.236D-07 0.953D-06-0.152D-04-0.434D-04
 Coeff-Com: -0.117D-03-0.412D-03-0.677D-03-0.114D-02 0.191D-02 0.313D-01
 Coeff-Com:  0.120D+00 0.289D+00 0.561D+00
 Coeff:     -0.308D-06 0.677D-06 0.236D-07 0.953D-06-0.152D-04-0.434D-04
 Coeff:     -0.117D-03-0.412D-03-0.677D-03-0.114D-02 0.191D-02 0.313D-01
 Coeff:      0.120D+00 0.289D+00 0.561D+00
 Gap=     0.173 Goal=   None    Shift=    0.000
 RMSDP=1.01D-08 MaxDP=6.54D-07 DE=-6.00D-11 OVMax= 2.13D-07

 Cycle  16  Pass 1  IDiag  1:
 RMSU=  3.04D-09    CP:  8.69D-01  6.57D-01  8.91D-01  4.28D-01  7.26D-01
                    CP:  6.65D-01  5.97D-01  7.90D-01  7.51D-01  9.51D-01
                    CP:  7.40D-01  8.51D-01  8.51D-01  6.99D-01  7.05D-01
 E= -3624.99855024574     Delta-E=       -0.000000000040 Rises=F Damp=F
 DIIS: error= 1.13D-08 at cycle  16 NSaved=  16.
 NSaved=16 IEnMin=16 EnMin= -3624.99855024574     IErMin=16 ErrMin= 1.13D-08
 ErrMax= 1.13D-08 EMaxC= 1.00D-01 BMatC= 2.91D-14 BMatP= 3.41D-13
 IDIUse=1 WtCom= 1.00D+00 WtEn= 0.00D+00
 Coeff-Com:  0.772D-08-0.109D-07 0.170D-06 0.197D-06 0.121D-05-0.622D-06
 Coeff-Com:  0.599D-06-0.431D-04-0.160D-03-0.103D-02-0.265D-02-0.283D-02
 Coeff-Com:  0.115D-01 0.802D-01 0.271D+00 0.644D+00
 Coeff:      0.772D-08-0.109D-07 0.170D-06 0.197D-06 0.121D-05-0.622D-06
 Coeff:      0.599D-06-0.431D-04-0.160D-03-0.103D-02-0.265D-02-0.283D-02
 Coeff:      0.115D-01 0.802D-01 0.271D+00 0.644D+00
 Gap=     0.173 Goal=   None    Shift=    0.000
 RMSDP=4.56D-09 MaxDP=3.63D-07 DE=-4.00D-11 OVMax= 7.61D-08

 SCF Done:  E(RB3LYP) =  -3624.99855025     A.U. after   16 cycles
             Convg  =    0.4559D-08             -V/T =  2.0016
 KE= 3.619117540660D+03 PE=-1.121336724593D+04 EE= 2.674017438199D+03
 Leave Link  502 at Sat Jul 06 11:20:53 2019, MaxMem=  209715200 cpu:     391.0
 (Enter C:\G09W\l601.exe)
 Copying SCF densities to generalized density rwf, IOpCl= 0 IROHF=0.

 **********************************************************************

            Population analysis using the SCF density.

 **********************************************************************

 Orbital symmetries:
       Occupied  (A) (A) (A) (A) (A) (A) (A) (A) (A) (A) (A) (A)
                 (A) (A) (A) (A) (A) (A) (A) (A) (A) (A) (A) (A)
                 (A) (A) (A) (A) (A) (A) (A) (A) (A) (A) (A) (A)
                 (A) (A) (A) (A) (A) (A) (A) (A) (A) (A) (A) (A)
                 (A) (A) (A) (A) (A) (A) (A) (A) (A) (A) (A) (A)
                 (A) (A) (A) (A) (A) (A) (A) (A) (A) (A) (A)
       Virtual   (A) (A) (A) (A) (A) (A) (A) (A) (A) (A) (A) (A)
                 (A) (A) (A) (A) (A) (A) (A) (A) (A) (A) (A) (A)
                 (A) (A) (A) (A) (A) (A) (A) (A) (A) (A) (A) (A)
                 (A) (A) (A) (A) (A) (A) (A) (A) (A) (A) (A) (A)
                 (A) (A) (A) (A) (A) (A) (A) (A) (A) (A) (A) (A)
                 (A) (A) (A) (A) (A) (A) (A) (A) (A) (A) (A) (A)
                 (A) (A) (A) (A) (A) (A) (A) (A) (A) (A) (A) (A)
                 (A) (A) (A) (A) (A) (A) (A) (A) (A) (A) (A) (A)
                 (A) (A) (A) (A) (A) (A) (A) (A) (A) (A) (A) (A)
                 (A) (A) (A) (A) (A) (A) (A) (A) (A) (A) (A) (A)
                 (A) (A) (A) (A) (A) (A) (A) (A) (A) (A) (A) (A)
                 (A) (A) (A) (A) (A) (A) (A) (A) (A) (A) (A) (A)
                 (A) (A) (A) (A) (A) (A) (A) (A) (A) (A) (A) (A)
                 (A) (A) (A) (A) (A) (A) (A) (A) (A) (A) (A) (A)
                 (A) (A) (A) (A) (A) (A) (A) (A) (A) (A) (A) (A)
                 (A) (A) (A) (A) (A) (A) (A) (A) (A) (A) (A) (A)
                 (A) (A) (A) (A) (A) (A) (A) (A) (A) (A) (A) (A)
                 (A) (A) (A) (A) (A) (A) (A) (A) (A) (A) (A) (A)
                 (A) (A) (A) (A) (A) (A) (A) (A) (A) (A) (A) (A)
                 (A) (A) (A) (A) (A) (A) (A) (A) (A) (A) (A) (A)
                 (A) (A) (A) (A) (A) (A) (A) (A) (A) (A) (A) (A)
                 (A) (A) (A) (A) (A) (A) (A) (A) (A) (A) (A) (A)
                 (A) (A) (A) (A) (A) (A) (A) (A) (A) (A) (A) (A)
                 (A) (A) (A) (A) (A) (A) (A) (A) (A) (A) (A) (A)
                 (A) (A) (A) (A) (A) (A) (A) (A) (A) (A) (A) (A)
                 (A) (A) (A) (A) (A) (A) (A) (A) (A) (A) (A) (A)
                 (A) (A) (A) (A) (A) (A) (A) (A) (A) (A) (A) (A)
                 (A) (A) (A) (A) (A) (A) (A) (A) (A) (A) (A) (A)
                 (A) (A) (A) (A)
 The electronic state is 1-A.
 Alpha  occ. eigenvalues -- -482.84550-101.58003 -62.49843 -56.31877 -56.31489
 Alpha  occ. eigenvalues --  -56.31479 -19.18228 -19.11154 -14.39586 -10.30700
 Alpha  occ. eigenvalues --  -10.27399 -10.26972 -10.26270 -10.24849 -10.24210
 Alpha  occ. eigenvalues --  -10.21299 -10.21274 -10.21228 -10.21169  -9.49437
 Alpha  occ. eigenvalues --   -8.70825  -7.25910  -7.24898  -7.24896  -6.53972
 Alpha  occ. eigenvalues --   -6.52669  -6.52649  -2.65068  -2.64690  -2.64677
 Alpha  occ. eigenvalues --   -2.63642  -2.63641  -1.14078  -1.05580  -1.01449
 Alpha  occ. eigenvalues --   -0.91515  -0.89800  -0.84014  -0.81257  -0.79533
 Alpha  occ. eigenvalues --   -0.76235  -0.75274  -0.67581  -0.65879  -0.62109
 Alpha  occ. eigenvalues --   -0.61061  -0.56557  -0.55816  -0.53944  -0.53213
 Alpha  occ. eigenvalues --   -0.50229  -0.49585  -0.47926  -0.46729  -0.45454
 Alpha  occ. eigenvalues --   -0.45303  -0.43946  -0.43351  -0.40969  -0.40129
 Alpha  occ. eigenvalues --   -0.39698  -0.39344  -0.37461  -0.34291  -0.33278
 Alpha  occ. eigenvalues --   -0.32056  -0.30899  -0.29852  -0.29278  -0.28272
 Alpha  occ. eigenvalues --   -0.23395
 Alpha virt. eigenvalues --   -0.06085  -0.05270  -0.03200  -0.02008  -0.01836
 Alpha virt. eigenvalues --   -0.01584  -0.00387   0.00515   0.01564   0.01602
 Alpha virt. eigenvalues --    0.02419   0.02801   0.04127   0.04264   0.04997
 Alpha virt. eigenvalues --    0.05017   0.05296   0.06482   0.06875   0.06905
 Alpha virt. eigenvalues --    0.07320   0.07693   0.08382   0.08590   0.09138
 Alpha virt. eigenvalues --    0.09591   0.09646   0.09762   0.10531   0.10747
 Alpha virt. eigenvalues --    0.10973   0.11574   0.11697   0.12365   0.12637
 Alpha virt. eigenvalues --    0.12729   0.13132   0.13497   0.13895   0.14493
 Alpha virt. eigenvalues --    0.14928   0.15317   0.15345   0.15946   0.16185
 Alpha virt. eigenvalues --    0.16995   0.17341   0.17764   0.18558   0.18867
 Alpha virt. eigenvalues --    0.19187   0.19739   0.20538   0.20650   0.21190
 Alpha virt. eigenvalues --    0.21327   0.22072   0.22246   0.23125   0.23380
 Alpha virt. eigenvalues --    0.23871   0.24252   0.25209   0.25553   0.25990
 Alpha virt. eigenvalues --    0.26740   0.27219   0.27726   0.28049   0.28769
 Alpha virt. eigenvalues --    0.28994   0.29095   0.29733   0.30776   0.30786
 Alpha virt. eigenvalues --    0.31280   0.32013   0.32383   0.33599   0.34226
 Alpha virt. eigenvalues --    0.34686   0.35006   0.35656   0.36645   0.38077
 Alpha virt. eigenvalues --    0.39510   0.40369   0.41030   0.42197   0.42890
 Alpha virt. eigenvalues --    0.43539   0.44759   0.45032   0.47914   0.48087
 Alpha virt. eigenvalues --    0.48856   0.49180   0.49663   0.51920   0.52312
 Alpha virt. eigenvalues --    0.53612   0.53936   0.55125   0.55694   0.55747
 Alpha virt. eigenvalues --    0.56891   0.57274   0.57464   0.58251   0.59756
 Alpha virt. eigenvalues --    0.60385   0.60884   0.61753   0.61804   0.62432
 Alpha virt. eigenvalues --    0.62488   0.64505   0.65790   0.66718   0.66771
 Alpha virt. eigenvalues --    0.67299   0.69343   0.70335   0.71430   0.72631
 Alpha virt. eigenvalues --    0.73231   0.73598   0.74082   0.75288   0.77549
 Alpha virt. eigenvalues --    0.79558   0.81365   0.82285   0.82426   0.82886
 Alpha virt. eigenvalues --    0.83516   0.83739   0.85244   0.85931   0.86682
 Alpha virt. eigenvalues --    0.87046   0.87364   0.88617   0.89824   0.90559
 Alpha virt. eigenvalues --    0.91675   0.93790   0.95646   0.96552   0.97204
 Alpha virt. eigenvalues --    0.97410   0.98651   0.99457   1.00209   1.01301
 Alpha virt. eigenvalues --    1.03305   1.04769   1.06017   1.07127   1.07541
 Alpha virt. eigenvalues --    1.09495   1.10112   1.12244   1.12576   1.12863
 Alpha virt. eigenvalues --    1.19363   1.20021   1.20295   1.22767   1.23225
 Alpha virt. eigenvalues --    1.23647   1.24075   1.27269   1.29357   1.30794
 Alpha virt. eigenvalues --    1.32627   1.37164   1.38306   1.39746   1.41226
 Alpha virt. eigenvalues --    1.47621   1.49667   1.50089   1.50380   1.51992
 Alpha virt. eigenvalues --    1.53542   1.54076   1.55661   1.56661   1.58155
 Alpha virt. eigenvalues --    1.59983   1.64059   1.64249   1.66039   1.67887
 Alpha virt. eigenvalues --    1.68465   1.70906   1.71604   1.74692   1.74965
 Alpha virt. eigenvalues --    1.78002   1.79669   1.80676   1.81911   1.85685
 Alpha virt. eigenvalues --    1.86723   1.86800   1.88390   1.89891   1.90049
 Alpha virt. eigenvalues --    1.92240   1.92931   1.95065   1.97729   1.99322
 Alpha virt. eigenvalues --    2.00000   2.01761   2.03214   2.03332   2.05423
 Alpha virt. eigenvalues --    2.06482   2.10614   2.13684   2.14785   2.17104
 Alpha virt. eigenvalues --    2.17888   2.18960   2.21307   2.24749   2.25712
 Alpha virt. eigenvalues --    2.28131   2.28367   2.36340   2.37499   2.40637
 Alpha virt. eigenvalues --    2.42457   2.43780   2.44496   2.45848   2.51807
 Alpha virt. eigenvalues --    2.52187   2.55733   2.57772   2.61406   2.61905
 Alpha virt. eigenvalues --    2.62824   2.65189   2.65723   2.70089   2.70524
 Alpha virt. eigenvalues --    2.71742   2.73202   2.73281   2.74527   2.76683
 Alpha virt. eigenvalues --    2.76949   2.78356   2.80556   2.85525   2.86912
 Alpha virt. eigenvalues --    2.88133   2.90429   2.91613   2.92192   2.94932
 Alpha virt. eigenvalues --    2.98878   2.99974   3.04085   3.05842   3.07704
 Alpha virt. eigenvalues --    3.11046   3.12969   3.13085   3.17431   3.19428
 Alpha virt. eigenvalues --    3.21184   3.25755   3.32203   3.35196   3.39090
 Alpha virt. eigenvalues --    3.42105   3.45323   3.48818   3.52251   3.61546
 Alpha virt. eigenvalues --    3.62997   3.72051   3.75198   3.78986   3.80617
 Alpha virt. eigenvalues --    3.87125   3.94098   3.99131   4.00641   4.05143
 Alpha virt. eigenvalues --    4.12405   4.12764   4.13378   4.15172   4.18993
 Alpha virt. eigenvalues --    4.20869   4.32991   4.37880   4.56801   4.82824
 Alpha virt. eigenvalues --    4.84549   5.00180   5.06066   5.15947   5.19832
 Alpha virt. eigenvalues --    5.44032   5.70087   5.90592   6.76454   7.54338
 Alpha virt. eigenvalues --    7.67902   7.74282   9.79982  23.54606  23.62882
 Alpha virt. eigenvalues --   23.84993  23.91371  23.94177  23.96340  24.05250
 Alpha virt. eigenvalues --   24.10939  24.17529  24.19379  25.81588  26.12848
 Alpha virt. eigenvalues --   26.68795  35.65586  48.01720  49.90524  50.08715
 Alpha virt. eigenvalues --  215.79665 289.74119 289.87886 289.966171020.83111
          Condensed to atoms (all electrons):
              1          2          3          4          5          6
     1  C   14.777098  -4.560080  -4.739763   0.245050   0.033752  -0.657546
     2  C   -4.560080  16.721335   1.644475  -0.332746  -1.497003  -2.825455
     3  C   -4.739763   1.644475  10.249611   0.475229  -1.724195   0.374899
     4  C    0.245050  -0.332746   0.475229   7.640705   0.021300  -1.844562
     5  C    0.033752  -1.497003  -1.724195   0.021300   8.351574   0.544393
     6  C   -0.657546  -2.825455   0.374899  -1.844562   0.544393   9.813712
     7  N   -0.124800   0.544145  -0.259820  -0.057680   0.072538   0.036639
     8  C    4.855032  -6.352480  -2.301654  -0.427097   0.570304   0.476709
     9  C   -3.416905   3.206959   1.521174   0.055693  -0.220842  -0.208438
    10  C   -1.254010  -0.204214   0.682077   0.101927  -0.121481   0.051221
    11  C    0.446168   0.294776  -0.348078   0.015431   0.026225  -0.084586
    12  O    0.165748  -0.250599  -0.028787  -0.004718   0.005182   0.020850
    13  Cl  -0.309959  -0.189954   0.259232   0.005592  -0.006632   0.017065
    14  O   -0.009850   0.014121   0.002069   0.000019  -0.000104  -0.000456
    15  Br  -0.003204  -0.018305   0.000377  -0.004248   0.089253   0.132655
    16  H    0.780022  -0.584092  -0.172809   0.021100   0.101163   0.135866
    17  H    0.001291  -0.091560   0.384410  -0.043285   0.038984   0.008315
    18  H    0.022386   0.010520  -0.081948   0.481678  -0.125469   0.017114
    19  H   -0.089008   0.241900   0.115625   0.030973  -0.219033   0.220636
    20  H   -0.379911   0.173590   0.270431  -0.004003  -0.081625  -0.011958
    21  H   -0.018283   0.045398   0.009643  -0.000148  -0.004329  -0.028147
    22  H    0.013962   0.003308   0.000611  -0.003349   0.000536  -0.010775
              7          8          9         10         11         12
     1  C   -0.124800   4.855032  -3.416905  -1.254010   0.446168   0.165748
     2  C    0.544145  -6.352480   3.206959  -0.204214   0.294776  -0.250599
     3  C   -0.259820  -2.301654   1.521174   0.682077  -0.348078  -0.028787
     4  C   -0.057680  -0.427097   0.055693   0.101927   0.015431  -0.004718
     5  C    0.072538   0.570304  -0.220842  -0.121481   0.026225   0.005182
     6  C    0.036639   0.476709  -0.208438   0.051221  -0.084586   0.020850
     7  N    7.089530  -0.470179   0.088594  -0.524688   0.299941  -0.024591
     8  C   -0.470179  20.216500  -9.706083  -2.762587   3.076559   0.286015
     9  C    0.088594  -9.706083  15.880975   2.512659  -3.907510  -0.346968
    10  C   -0.524688  -2.762587   2.512659   8.941859  -2.755912   0.574490
    11  C    0.299941   3.076559  -3.907510  -2.755912  10.208683  -0.209886
    12  O   -0.024591   0.286015  -0.346968   0.574490  -0.209886   8.124776
    13  Cl  -0.129799  -0.677545   0.302262   0.528605  -1.228901   0.014832
    14  O   -0.001387  -0.148169   0.025100   0.045861   0.314932  -0.078386
    15  Br   0.001157   0.013544  -0.004865  -0.003167   0.000278   0.000062
    16  H   -0.028284   0.238924  -0.202362   0.025748   0.025632   0.017966
    17  H   -0.004240   0.046431   0.008011  -0.023194   0.009082   0.000476
    18  H   -0.005929  -0.028466   0.004450   0.005103  -0.000438  -0.000115
    19  H   -0.006278  -0.029125   0.025365   0.004744  -0.002637  -0.000800
    20  H    0.328226  -0.397837   0.190503   0.084038  -0.181674  -0.011907
    21  H    0.021883  -0.062354  -0.001384   0.332261   0.000778  -0.072627
    22  H    0.021461  -0.015112  -0.022508   0.304933  -0.002687  -0.072120
             13         14         15         16         17         18
     1  C   -0.309959  -0.009850  -0.003204   0.780022   0.001291   0.022386
     2  C   -0.189954   0.014121  -0.018305  -0.584092  -0.091560   0.010520
     3  C    0.259232   0.002069   0.000377  -0.172809   0.384410  -0.081948
     4  C    0.005592   0.000019  -0.004248   0.021100  -0.043285   0.481678
     5  C   -0.006632  -0.000104   0.089253   0.101163   0.038984  -0.125469
     6  C    0.017065  -0.000456   0.132655   0.135866   0.008315   0.017114
     7  N   -0.129799  -0.001387   0.001157  -0.028284  -0.004240  -0.005929
     8  C   -0.677545  -0.148169   0.013544   0.238924   0.046431  -0.028466
     9  C    0.302262   0.025100  -0.004865  -0.202362   0.008011   0.004450
    10  C    0.528605   0.045861  -0.003167   0.025748  -0.023194   0.005103
    11  C   -1.228901   0.314932   0.000278   0.025632   0.009082  -0.000438
    12  O    0.014832  -0.078386   0.000062   0.017966   0.000476  -0.000115
    13  Cl  17.797638   0.066245  -0.000151  -0.027562  -0.011529   0.000272
    14  O    0.066245   8.077690  -0.000001  -0.001253   0.000035   0.000002
    15  Br  -0.000151  -0.000001  35.079819   0.018828   0.008699  -0.057663
    16  H   -0.027562  -0.001253   0.018828   0.692878  -0.001974  -0.001420
    17  H   -0.011529   0.000035   0.008699  -0.001974   0.583065  -0.036216
    18  H    0.000272   0.000002  -0.057663  -0.001420  -0.036216   0.548419
    19  H    0.001242   0.000029  -0.066336  -0.066854   0.000112   0.003801
    20  H    0.264622   0.000222  -0.004902  -0.035940  -0.019490   0.007868
    21  H    0.018797   0.003307  -0.000465  -0.024972  -0.000012   0.000035
    22  H    0.019628   0.003494  -0.000437  -0.022339   0.000086  -0.000013
             19         20         21         22
     1  C   -0.089008  -0.379911  -0.018283   0.013962
     2  C    0.241900   0.173590   0.045398   0.003308
     3  C    0.115625   0.270431   0.009643   0.000611
     4  C    0.030973  -0.004003  -0.000148  -0.003349
     5  C   -0.219033  -0.081625  -0.004329   0.000536
     6  C    0.220636  -0.011958  -0.028147  -0.010775
     7  N   -0.006278   0.328226   0.021883   0.021461
     8  C   -0.029125  -0.397837  -0.062354  -0.015112
     9  C    0.025365   0.190503  -0.001384  -0.022508
    10  C    0.004744   0.084038   0.332261   0.304933
    11  C   -0.002637  -0.181674   0.000778  -0.002687
    12  O   -0.000800  -0.011907  -0.072627  -0.072120
    13  Cl   0.001242   0.264622   0.018797   0.019628
    14  O    0.000029   0.000222   0.003307   0.003494
    15  Br  -0.066336  -0.004902  -0.000465  -0.000437
    16  H   -0.066854  -0.035940  -0.024972  -0.022339
    17  H    0.000112  -0.019490  -0.000012   0.000086
    18  H    0.003801   0.007868   0.000035  -0.000013
    19  H    0.571355   0.007098   0.002796   0.002446
    20  H    0.007098   0.557044   0.004733   0.005032
    21  H    0.002796   0.004733   0.671207  -0.119697
    22  H    0.002446   0.005032  -0.119697   0.672198
 Mulliken atomic charges:
              1
     1  C    0.222809
     2  C    0.005961
     3  C   -0.332808
     4  C   -0.372862
     5  C    0.145510
     6  C   -0.178151
     7  N    0.133558
     8  C   -0.401329
     9  C    0.216124
    10  C   -0.546273
    11  C    0.003826
    12  O   -0.108893
    13  Cl   0.286002
    14  O   -0.313521
    15  Br  -0.180929
    16  H    0.111733
    17  H    0.142502
    18  H    0.236031
    19  H    0.251947
    20  H    0.235840
    21  H    0.221580
    22  H    0.221341
 Sum of Mulliken atomic charges =   0.00000
 Mulliken charges with hydrogens summed into heavy atoms:
              1
     1  C    0.334543
     2  C    0.005961
     3  C   -0.190306
     4  C   -0.136830
     5  C    0.145510
     6  C    0.073796
     7  N    0.369399
     8  C   -0.401329
     9  C    0.216124
    10  C   -0.103352
    11  C    0.003826
    12  O   -0.108893
    13  Cl   0.286002
    14  O   -0.313521
    15  Br  -0.180929
 Sum of Mulliken charges with hydrogens summed into heavy atoms =   0.00000
 Electronic spatial extent (au):  <R**2>=           7677.1863
 Charge=              0.0000 electrons
 Dipole moment (field-independent basis, Debye):
    X=             -5.0157    Y=              1.2438    Z=              0.0147  Tot=              5.1676
 Quadrupole moment (field-independent basis, Debye-Ang):
   XX=           -154.0026   YY=            -98.9579   ZZ=           -107.7850
   XY=              6.8627   XZ=              0.0415   YZ=              0.0618
 Traceless Quadrupole moment (field-independent basis, Debye-Ang):
   XX=            -33.7541   YY=             21.2906   ZZ=             12.4635
   XY=              6.8627   XZ=              0.0415   YZ=              0.0618
 Octapole moment (field-independent basis, Debye-Ang**2):
  XXX=           -359.9684  YYY=             10.4213  ZZZ=             -0.1159  XYY=            -58.2670
  XXY=             49.7276  XXZ=              0.1958  XZZ=            -26.2904  YZZ=             -6.4381
  YYZ=              0.0018  XYZ=             -0.0744
 Hexadecapole moment (field-independent basis, Debye-Ang**3):
 XXXX=          -9273.5793 YYYY=           -935.3903 ZZZZ=           -127.1748 XXXY=            311.4489
 XXXZ=              1.9311 YYYX=             71.3430 YYYZ=              0.3316 ZZZX=              0.4699
 ZZZY=             -0.1640 XXYY=          -1506.7101 XXZZ=          -1312.7374 YYZZ=           -188.6368
 XXYZ=              0.2182 YYXZ=             -0.0573 ZZXY=             -2.8723
 N-N= 1.295233716823D+03 E-N=-1.121336724732D+04  KE= 3.619117540660D+03
 No NMR shielding tensors so no spin-rotation constants.
 Leave Link  601 at Sat Jul 06 11:20:54 2019, MaxMem=  209715200 cpu:       1.0
 (Enter C:\G09W\l607.exe)
 ******************************Gaussian NBO Version 3.1******************************
             N A T U R A L   A T O M I C   O R B I T A L   A N D
          N A T U R A L   B O N D   O R B I T A L   A N A L Y S I S
 ******************************Gaussian NBO Version 3.1******************************
       /RESON  / : Allow strongly delocalized NBO set

 Analyzing the SCF density

 Job title: Title Card Required                                             

 Storage needed:    513683 in NPA,    684047 in NBO ( 209713709 available)


 NATURAL POPULATIONS:  Natural atomic orbital occupancies 
                                                          
   NAO  Atom  No  lang   Type(AO)    Occupancy      Energy
 ----------------------------------------------------------
     1    C    1  S      Cor( 1S)     1.99906     -10.06220
     2    C    1  S      Val( 2S)     0.92923      -0.18330
     3    C    1  S      Ryd( 4S)     0.00116       0.90228
     4    C    1  S      Ryd( 3S)     0.00012       0.57494
     5    C    1  S      Ryd( 5S)     0.00001      23.02833
     6    C    1  px     Val( 2p)     1.10686      -0.09106
     7    C    1  px     Ryd( 4p)     0.00335       1.10953
     8    C    1  px     Ryd( 3p)     0.00033       0.67617
     9    C    1  px     Ryd( 5p)     0.00012       2.99719
    10    C    1  py     Val( 2p)     1.13028      -0.08396
    11    C    1  py     Ryd( 4p)     0.00429       1.15037
    12    C    1  py     Ryd( 3p)     0.00031       0.67887
    13    C    1  py     Ryd( 5p)     0.00013       2.81722
    14    C    1  pz     Val( 2p)     1.05461      -0.14936
    15    C    1  pz     Ryd( 4p)     0.00158       0.52737
    16    C    1  pz     Ryd( 3p)     0.00078       0.36006
    17    C    1  pz     Ryd( 5p)     0.00002       2.63260
    18    C    1  dxy    Ryd( 3d)     0.00076       2.53711
    19    C    1  dxz    Ryd( 3d)     0.00049       1.61287
    20    C    1  dyz    Ryd( 3d)     0.00046       1.62371
    21    C    1  dx2y2  Ryd( 3d)     0.00057       2.63836
    22    C    1  dz2    Ryd( 3d)     0.00047       2.09994

    23    C    2  S      Cor( 1S)     1.99895     -10.11905
    24    C    2  S      Val( 2S)     0.82698      -0.15229
    25    C    2  S      Ryd( 4S)     0.00102       0.81424
    26    C    2  S      Ryd( 3S)     0.00013       0.51505
    27    C    2  S      Ryd( 5S)     0.00002      22.94031
    28    C    2  px     Val( 2p)     0.87788      -0.06142
    29    C    2  px     Ryd( 4p)     0.00578       1.21073
    30    C    2  px     Ryd( 3p)     0.00023       0.62002
    31    C    2  px     Ryd( 5p)     0.00010       3.02440
    32    C    2  py     Val( 2p)     1.10653      -0.10766
    33    C    2  py     Ryd( 4p)     0.00541       1.31870
    34    C    2  py     Ryd( 3p)     0.00021       0.51378
    35    C    2  py     Ryd( 5p)     0.00015       2.89751
    36    C    2  pz     Val( 2p)     1.00554      -0.15272
    37    C    2  pz     Ryd( 4p)     0.00077       0.59669
    38    C    2  pz     Ryd( 3p)     0.00052       0.33741
    39    C    2  pz     Ryd( 5p)     0.00001       2.59957
    40    C    2  dxy    Ryd( 3d)     0.00076       2.65978
    41    C    2  dxz    Ryd( 3d)     0.00147       1.59198
    42    C    2  dyz    Ryd( 3d)     0.00066       1.61850
    43    C    2  dx2y2  Ryd( 3d)     0.00119       2.49035
    44    C    2  dz2    Ryd( 3d)     0.00047       2.08684

    45    C    3  S      Cor( 1S)     1.99908     -10.06203
    46    C    3  S      Val( 2S)     0.93246      -0.18660
    47    C    3  S      Ryd( 3S)     0.00138       0.83481
    48    C    3  S      Ryd( 4S)     0.00013       1.09141
    49    C    3  S      Ryd( 5S)     0.00001      22.56698
    50    C    3  px     Val( 2p)     1.08240      -0.08659
    51    C    3  px     Ryd( 4p)     0.00414       0.98527
    52    C    3  px     Ryd( 3p)     0.00038       0.46562
    53    C    3  px     Ryd( 5p)     0.00013       3.04830
    54    C    3  py     Val( 2p)     1.14198      -0.08754
    55    C    3  py     Ryd( 4p)     0.00508       1.12764
    56    C    3  py     Ryd( 3p)     0.00018       0.41683
    57    C    3  py     Ryd( 5p)     0.00008       3.01085
    58    C    3  pz     Val( 2p)     1.03930      -0.14800
    59    C    3  pz     Ryd( 4p)     0.00083       0.53275
    60    C    3  pz     Ryd( 3p)     0.00054       0.25716
    61    C    3  pz     Ryd( 5p)     0.00001       2.65524
    62    C    3  dxy    Ryd( 3d)     0.00075       2.54984
    63    C    3  dxz    Ryd( 3d)     0.00053       1.63607
    64    C    3  dyz    Ryd( 3d)     0.00043       1.59657
    65    C    3  dx2y2  Ryd( 3d)     0.00055       2.55494
    66    C    3  dz2    Ryd( 3d)     0.00041       2.07700

    67    C    4  S      Cor( 1S)     1.99896     -10.05703
    68    C    4  S      Val( 2S)     0.93653      -0.17792
    69    C    4  S      Ryd( 3S)     0.00182       0.85341
    70    C    4  S      Ryd( 4S)     0.00015       0.87006
    71    C    4  S      Ryd( 5S)     0.00001      22.91351
    72    C    4  px     Val( 2p)     1.10853      -0.08408
    73    C    4  px     Ryd( 4p)     0.00667       0.88968
    74    C    4  px     Ryd( 3p)     0.00024       0.40561
    75    C    4  px     Ryd( 5p)     0.00013       3.10932
    76    C    4  py     Val( 2p)     1.15635      -0.09797
    77    C    4  py     Ryd( 4p)     0.00572       0.94610
    78    C    4  py     Ryd( 3p)     0.00019       0.43671
    79    C    4  py     Ryd( 5p)     0.00007       3.08849
    80    C    4  pz     Val( 2p)     0.97797      -0.13990
    81    C    4  pz     Ryd( 4p)     0.00104       0.49655
    82    C    4  pz     Ryd( 3p)     0.00039       0.25802
    83    C    4  pz     Ryd( 5p)     0.00002       2.69286
    84    C    4  dxy    Ryd( 3d)     0.00079       2.48073
    85    C    4  dxz    Ryd( 3d)     0.00059       1.62715
    86    C    4  dyz    Ryd( 3d)     0.00048       1.60891
    87    C    4  dx2y2  Ryd( 3d)     0.00073       2.59923
    88    C    4  dz2    Ryd( 3d)     0.00041       2.04177

    89    C    5  S      Cor( 1S)     1.99857     -10.11430
    90    C    5  S      Val( 2S)     0.94435      -0.23859
    91    C    5  S      Ryd( 4S)     0.00126       0.87386
    92    C    5  S      Ryd( 3S)     0.00016       0.59831
    93    C    5  S      Ryd( 5S)     0.00001      23.19758
    94    C    5  px     Val( 2p)     0.98457      -0.19023
    95    C    5  px     Ryd( 3p)     0.00725       0.97732
    96    C    5  px     Ryd( 4p)     0.00021       1.02157
    97    C    5  px     Ryd( 5p)     0.00026       2.99513
    98    C    5  py     Val( 2p)     1.08446      -0.09774
    99    C    5  py     Ryd( 4p)     0.00704       0.75099
   100    C    5  py     Ryd( 3p)     0.00022       0.49236
   101    C    5  py     Ryd( 5p)     0.00010       3.25958
   102    C    5  pz     Val( 2p)     1.09486      -0.16582
   103    C    5  pz     Ryd( 4p)     0.00132       0.58766
   104    C    5  pz     Ryd( 3p)     0.00036       0.35505
   105    C    5  pz     Ryd( 5p)     0.00001       2.58269
   106    C    5  dxy    Ryd( 3d)     0.00114       2.44416
   107    C    5  dxz    Ryd( 3d)     0.00113       1.48661
   108    C    5  dyz    Ryd( 3d)     0.00057       1.63202
   109    C    5  dx2y2  Ryd( 3d)     0.00142       2.18809
   110    C    5  dz2    Ryd( 3d)     0.00068       2.01364

   111    C    6  S      Cor( 1S)     1.99896     -10.05771
   112    C    6  S      Val( 2S)     0.93584      -0.17844
   113    C    6  S      Ryd( 3S)     0.00182       0.86572
   114    C    6  S      Ryd( 4S)     0.00015       0.96655
   115    C    6  S      Ryd( 5S)     0.00001      22.78303
   116    C    6  px     Val( 2p)     1.08187      -0.08323
   117    C    6  px     Ryd( 4p)     0.00589       0.83004
   118    C    6  px     Ryd( 3p)     0.00022       0.45590
   119    C    6  px     Ryd( 5p)     0.00012       3.10171
   120    C    6  py     Val( 2p)     1.17909      -0.09789
   121    C    6  py     Ryd( 4p)     0.00633       1.00994
   122    C    6  py     Ryd( 3p)     0.00018       0.51995
   123    C    6  py     Ryd( 5p)     0.00005       3.02845
   124    C    6  pz     Val( 2p)     0.97883      -0.14026
   125    C    6  pz     Ryd( 4p)     0.00100       0.50095
   126    C    6  pz     Ryd( 3p)     0.00040       0.27532
   127    C    6  pz     Ryd( 5p)     0.00003       2.67768
   128    C    6  dxy    Ryd( 3d)     0.00082       2.53249
   129    C    6  dxz    Ryd( 3d)     0.00059       1.63911
   130    C    6  dyz    Ryd( 3d)     0.00046       1.59604
   131    C    6  dx2y2  Ryd( 3d)     0.00071       2.55380
   132    C    6  dz2    Ryd( 3d)     0.00041       2.04148

   133    N    7  S      Cor( 1S)     1.99923     -14.21528
   134    N    7  S      Val( 2S)     1.19826      -0.55351
   135    N    7  S      Ryd( 4S)     0.00094       1.39653
   136    N    7  S      Ryd( 3S)     0.00013       1.14761
   137    N    7  S      Ryd( 5S)     0.00000      35.19485
   138    N    7  px     Val( 2p)     1.29107      -0.28491
   139    N    7  px     Ryd( 4p)     0.00142       1.29246
   140    N    7  px     Ryd( 3p)     0.00035       0.92775
   141    N    7  px     Ryd( 5p)     0.00006       4.47071
   142    N    7  py     Val( 2p)     1.37921      -0.28816
   143    N    7  py     Ryd( 4p)     0.00441       1.17535
   144    N    7  py     Ryd( 3p)     0.00031       0.86898
   145    N    7  py     Ryd( 5p)     0.00002       4.32270
   146    N    7  pz     Val( 2p)     1.67005      -0.30027
   147    N    7  pz     Ryd( 3p)     0.00514       0.49603
   148    N    7  pz     Ryd( 4p)     0.00081       0.60632
   149    N    7  pz     Ryd( 5p)     0.00000       3.80168
   150    N    7  dxy    Ryd( 3d)     0.00070       2.89325
   151    N    7  dxz    Ryd( 3d)     0.00056       2.19883
   152    N    7  dyz    Ryd( 3d)     0.00010       2.12964
   153    N    7  dx2y2  Ryd( 3d)     0.00080       2.99830
   154    N    7  dz2    Ryd( 3d)     0.00064       2.59812

   155    C    8  S      Cor( 1S)     1.99872     -10.12292
   156    C    8  S      Val( 2S)     0.82683      -0.16220
   157    C    8  S      Ryd( 3S)     0.00151       0.77212
   158    C    8  S      Ryd( 4S)     0.00010       3.41822
   159    C    8  S      Ryd( 5S)     0.00003      20.10776
   160    C    8  px     Val( 2p)     0.99723      -0.09781
   161    C    8  px     Ryd( 4p)     0.00429       1.05045
   162    C    8  px     Ryd( 3p)     0.00023       0.63691
   163    C    8  px     Ryd( 5p)     0.00020       3.20246
   164    C    8  py     Val( 2p)     1.01211      -0.10856
   165    C    8  py     Ryd( 4p)     0.00633       1.16571
   166    C    8  py     Ryd( 3p)     0.00022       0.49642
   167    C    8  py     Ryd( 5p)     0.00015       2.87365
   168    C    8  pz     Val( 2p)     0.95698      -0.15951
   169    C    8  pz     Ryd( 4p)     0.00111       0.60113
   170    C    8  pz     Ryd( 3p)     0.00074       0.29846
   171    C    8  pz     Ryd( 5p)     0.00002       2.64645
   172    C    8  dxy    Ryd( 3d)     0.00090       2.48331
   173    C    8  dxz    Ryd( 3d)     0.00213       1.64052
   174    C    8  dyz    Ryd( 3d)     0.00078       1.63290
   175    C    8  dx2y2  Ryd( 3d)     0.00083       2.59926
   176    C    8  dz2    Ryd( 3d)     0.00047       2.07879

   177    C    9  S      Cor( 1S)     1.99827     -10.11520
   178    C    9  S      Val( 2S)     0.94530      -0.23600
   179    C    9  S      Ryd( 3S)     0.00235       0.29957
   180    C    9  S      Ryd( 4S)     0.00106       1.02235
   181    C    9  S      Ryd( 5S)     0.00002      23.23803
   182    C    9  px     Val( 2p)     1.07999      -0.12901
   183    C    9  px     Ryd( 4p)     0.00640       0.92521
   184    C    9  px     Ryd( 3p)     0.00048       0.86500
   185    C    9  px     Ryd( 5p)     0.00029       2.73920
   186    C    9  py     Val( 2p)     0.97877      -0.17939
   187    C    9  py     Ryd( 4p)     0.00552       1.12749
   188    C    9  py     Ryd( 3p)     0.00027       0.95262
   189    C    9  py     Ryd( 5p)     0.00037       2.50512
   190    C    9  pz     Val( 2p)     1.21267      -0.17535
   191    C    9  pz     Ryd( 4p)     0.00133       0.61062
   192    C    9  pz     Ryd( 3p)     0.00051       0.54278
   193    C    9  pz     Ryd( 5p)     0.00005       2.38488
   194    C    9  dxy    Ryd( 3d)     0.00148       2.39581
   195    C    9  dxz    Ryd( 3d)     0.00077       1.61035
   196    C    9  dyz    Ryd( 3d)     0.00151       1.51696
   197    C    9  dx2y2  Ryd( 3d)     0.00148       2.34249
   198    C    9  dz2    Ryd( 3d)     0.00086       2.10042

   199    C   10  S      Cor( 1S)     1.99912     -10.14356
   200    C   10  S      Val( 2S)     1.00225      -0.27427
   201    C   10  S      Ryd( 4S)     0.00233       1.04886
   202    C   10  S      Ryd( 3S)     0.00008       1.00935
   203    C   10  S      Ryd( 5S)     0.00001      22.97088
   204    C   10  px     Val( 2p)     0.79359      -0.12169
   205    C   10  px     Ryd( 3p)     0.00422       0.81968
   206    C   10  px     Ryd( 4p)     0.00018       1.06477
   207    C   10  px     Ryd( 5p)     0.00012       2.40353
   208    C   10  py     Val( 2p)     1.02663      -0.13669
   209    C   10  py     Ryd( 3p)     0.00309       0.68224
   210    C   10  py     Ryd( 4p)     0.00015       0.98600
   211    C   10  py     Ryd( 5p)     0.00017       2.12713
   212    C   10  pz     Val( 2p)     1.20082      -0.14889
   213    C   10  pz     Ryd( 3p)     0.00077       0.69779
   214    C   10  pz     Ryd( 4p)     0.00028       1.05663
   215    C   10  pz     Ryd( 5p)     0.00008       2.25097
   216    C   10  dxy    Ryd( 3d)     0.00160       1.95394
   217    C   10  dxz    Ryd( 3d)     0.00216       1.96166
   218    C   10  dyz    Ryd( 3d)     0.00088       1.91005
   219    C   10  dx2y2  Ryd( 3d)     0.00186       2.33632
   220    C   10  dz2    Ryd( 3d)     0.00117       2.17326

   221    C   11  S      Cor( 1S)     1.99916     -10.18220
   222    C   11  S      Val( 2S)     0.73842      -0.11316
   223    C   11  S      Ryd( 4S)     0.00937       0.73145
   224    C   11  S      Ryd( 3S)     0.00175       0.66114
   225    C   11  S      Ryd( 5S)     0.00009      22.30221
   226    C   11  px     Val( 2p)     0.81245      -0.01774
   227    C   11  px     Ryd( 4p)     0.01675       1.31082
   228    C   11  px     Ryd( 3p)     0.00036       0.62819
   229    C   11  px     Ryd( 5p)     0.00015       2.37034
   230    C   11  py     Val( 2p)     0.83806      -0.05700
   231    C   11  py     Ryd( 4p)     0.00789       1.22186
   232    C   11  py     Ryd( 3p)     0.00050       0.52685
   233    C   11  py     Ryd( 5p)     0.00027       2.22153
   234    C   11  pz     Val( 2p)     0.80779      -0.13471
   235    C   11  pz     Ryd( 4p)     0.00144       0.77244
   236    C   11  pz     Ryd( 3p)     0.00052       0.40574
   237    C   11  pz     Ryd( 5p)     0.00016       2.35036
   238    C   11  dxy    Ryd( 3d)     0.00606       2.67229
   239    C   11  dxz    Ryd( 3d)     0.00560       1.66462
[...]
   154. RY*(  15) C   5                  0.00000     2.62859   
   155. RY*(  16) C   5                  0.00000    21.65146   
   156. RY*(  17) C   5                  0.00000     0.50612   
   157. RY*(   1) C   6                  0.00634     0.96428   
   158. RY*(   2) C   6                  0.00285     0.97690   
   159. RY*(   3) C   6                  0.00122     0.91083   
   160. RY*(   4) C   6                  0.00072     0.94342   
   161. RY*(   5) C   6                  0.00045     1.21734   
   162. RY*(   6) C   6                  0.00018     2.05899   
   163. RY*(   7) C   6                  0.00015     0.86222   
   164. RY*(   8) C   6                  0.00013     2.65302   
   165. RY*(   9) C   6                  0.00010     3.21194   
   166. RY*(  10) C   6                  0.00007     0.89353   
   167. RY*(  11) C   6                  0.00004     1.72957   
   168. RY*(  12) C   6                  0.00002     2.86148   
   169. RY*(  13) C   6                  0.00001     2.69996   
   170. RY*(  14) C   6                  0.00000    19.77692   
   171. RY*(  15) C   6                  0.00000     1.00210   
   172. RY*(  16) C   6                  0.00001     1.81232   
   173. RY*(  17) C   6                  0.00000     2.67097   
   174. RY*(   1) N   7                  0.00479     1.15945   
   175. RY*(   2) N   7                  0.00444     0.54933   
   176. RY*(   3) N   7                  0.00126     1.42835   
   177. RY*(   4) N   7                  0.00057     2.19336   
   178. RY*(   5) N   7                  0.00033     1.63654   
   179. RY*(   6) N   7                  0.00021     1.87560   
   180. RY*(   7) N   7                  0.00015     1.83107   
   181. RY*(   8) N   7                  0.00013     0.61005   
   182. RY*(   9) N   7                  0.00007     2.04019   
   183. RY*(  10) N   7                  0.00004     1.60318   
   184. RY*(  11) N   7                  0.00004     2.48823   
   185. RY*(  12) N   7                  0.00002     2.05847   
   186. RY*(  13) N   7                  0.00002     3.36492   
   187. RY*(  14) N   7                  0.00000     4.15188   
   188. RY*(  15) N   7                  0.00000     3.79046   
   189. RY*(  16) N   7                  0.00000    35.15766   
   190. RY*(  17) N   7                  0.00001     2.29306   
   191. RY*(   1) C   8                  0.00602     1.18216   
   192. RY*(   2) C   8                  0.00346     1.11898   
   193. RY*(   3) C   8                  0.00254     1.51912   
   194. RY*(   4) C   8                  0.00118     0.95834   
   195. RY*(   5) C   8                  0.00079     1.03868   
   196. RY*(   6) C   8                  0.00043     1.00720   
   197. RY*(   7) C   8                  0.00040     1.91178   
   198. RY*(   8) C   8                  0.00033     1.75816   
   199. RY*(   9) C   8                  0.00026     2.12300   
   200. RY*(  10) C   8                  0.00019     3.17843   
   201. RY*(  11) C   8                  0.00011     0.57679   
   202. RY*(  12) C   8                  0.00009     4.84078   
   203. RY*(  13) C   8                  0.00006     1.68960   
   204. RY*(  14) C   8                  0.00004     1.88604   
   205. RY*(  15) C   8                  0.00000     2.72307   
   206. RY*(  16) C   8                  0.00001     1.74319   
   207. RY*(  17) C   8                  0.00001    18.17550   
   208. RY*(   1) C   9                  0.00678     0.92051   
   209. RY*(   2) C   9                  0.00443     1.16879   
   210. RY*(   3) C   9                  0.00213     1.23469   
   211. RY*(   4) C   9                  0.00111     1.17552   
   212. RY*(   5) C   9                  0.00082     1.59047   
   213. RY*(   6) C   9                  0.00066     0.89003   
   214. RY*(   7) C   9                  0.00035     2.09645   
   215. RY*(   8) C   9                  0.00032     1.52069   
   216. RY*(   9) C   9                  0.00016     3.02551   
   217. RY*(  10) C   9                  0.00009     1.59530   
   218. RY*(  11) C   9                  0.00008     0.33968   
   219. RY*(  12) C   9                  0.00004     2.12612   
   220. RY*(  13) C   9                  0.00002     1.91979   
   221. RY*(  14) C   9                  0.00002     1.76793   
   222. RY*(  15) C   9                  0.00000     2.65162   
   223. RY*(  16) C   9                  0.00001    21.27582   
   224. RY*(  17) C   9                  0.00001     1.80420   
   225. RY*(   1) C  10                  0.00422     1.08781   
   226. RY*(   2) C  10                  0.00196     0.82924   
   227. RY*(   3) C  10                  0.00195     1.70699   
   228. RY*(   4) C  10                  0.00079     1.47291   
   229. RY*(   5) C  10                  0.00056     1.77254   
   230. RY*(   6) C  10                  0.00040     1.08997   
   231. RY*(   7) C  10                  0.00034     0.54011   
   232. RY*(   8) C  10                  0.00017     2.47964   
   233. RY*(   9) C  10                  0.00009     2.85210   
   234. RY*(  10) C  10                  0.00007     0.67690   
   235. RY*(  11) C  10                  0.00006     1.04863   
   236. RY*(  12) C  10                  0.00004     1.48202   
   237. RY*(  13) C  10                  0.00002     1.39717   
   238. RY*(  14) C  10                  0.00000     3.14420   
   239. RY*(  15) C  10                  0.00001     2.09946   
   240. RY*(  16) C  10                  0.00001     1.73595   
   241. RY*(  17) C  10                  0.00000    22.05206   
   242. RY*(   1) C  11                  0.01490     1.13949   
   243. RY*(   2) C  11                  0.01165     1.60716   
   244. RY*(   3) C  11                  0.00697     1.59081   
   245. RY*(   4) C  11                  0.00373     1.79263   
   246. RY*(   5) C  11                  0.00236     1.67581   
   247. RY*(   6) C  11                  0.00155     1.38952   
   248. RY*(   7) C  11                  0.00082     1.49028   
   249. RY*(   8) C  11                  0.00042     0.68287   
   250. RY*(   9) C  11                  0.00018     2.24143   
   251. RY*(  10) C  11                  0.00012     2.78982   
   252. RY*(  11) C  11                  0.00004     2.11807   
   253. RY*(  12) C  11                  0.00001     2.61640   
   254. RY*(  13) C  11                  0.00001    18.62898   
   255. RY*(  14) C  11                  0.00001     0.96041   
   256. RY*(  15) C  11                  0.00001     2.54179   
   257. RY*(  16) C  11                  0.00001     2.45436   
   258. RY*(  17) C  11                  0.00001     0.42030   
   259. RY*(   1) O  12                  0.00380     0.46811   
   260. RY*(   2) O  12                  0.00220     0.89347   
   261. RY*(   3) O  12                  0.00158     0.85169   
   262. RY*(   4) O  12                  0.00071     1.49517   
   263. RY*(   5) O  12                  0.00054     0.93816   
   264. RY*(   6) O  12                  0.00022     1.43570   
   265. RY*(   7) O  12                  0.00015     2.66228   
   266. RY*(   8) O  12                  0.00004     3.90356   
   267. RY*(   9) O  12                  0.00004     1.37518   
   268. RY*(  10) O  12                  0.00005     1.30910   
   269. RY*(  11) O  12                  0.00002     2.28476   
   270. RY*(  12) O  12                  0.00001     4.39081   
   271. RY*(  13) O  12                  0.00001     3.07549   
   272. RY*(  14) O  12                  0.00000     4.88769   
   273. RY*(  15) O  12                  0.00001     4.94274   
   274. RY*(  16) O  12                  0.00000    49.10649   
   275. RY*(  17) O  12                  0.00001     3.21471   
   276. RY*(   1)Cl  13                  0.00529     0.57519   
   277. RY*(   2)Cl  13                  0.00268     0.57421   
   278. RY*(   3)Cl  13                  0.00075     0.66697   
   279. RY*(   4)Cl  13                  0.00038     0.40306   
   280. RY*(   5)Cl  13                  0.00020     0.27141   
   281. RY*(   6)Cl  13                  0.00013     0.65311   
   282. RY*(   7)Cl  13                  0.00007     2.32457   
   283. RY*(   8)Cl  13                  0.00003     0.77439   
   284. RY*(   9)Cl  13                  0.00004     0.79325   
   285. RY*(  10)Cl  13                  0.00003     1.06009   
   286. RY*(  11)Cl  13                  0.00000     2.12979   
   287. RY*(  12)Cl  13                  0.00001     1.07188   
   288. RY*(  13)Cl  13                  0.00001     0.87725   
   289. RY*(  14)Cl  13                  0.00000    25.02234   
   290. RY*(  15)Cl  13                  0.00000     3.01314   
   291. RY*(  16)Cl  13                  0.00000    24.94238   
   292. RY*(  17)Cl  13                  0.00001     3.17636   
   293. RY*(  18)Cl  13                  0.00000   208.02330   
   294. RY*(  19)Cl  13                  0.00000    17.09213   
   295. RY*(  20)Cl  13                  0.00000    24.67986   
   296. RY*(  21)Cl  13                  0.00001     0.98703   
   297. RY*(   1) O  14                  0.00266     0.83690   
   298. RY*(   2) O  14                  0.00121     0.62604   
   299. RY*(   3) O  14                  0.00089     1.18580   
   300. RY*(   4) O  14                  0.00018     1.06426   
   301. RY*(   5) O  14                  0.00009     5.04274   
   302. RY*(   6) O  14                  0.00006     1.63288   
   303. RY*(   7) O  14                  0.00004     1.43819   
   304. RY*(   8) O  14                  0.00003     1.20566   
   305. RY*(   9) O  14                  0.00000     4.12015   
   306. RY*(  10) O  14                  0.00000     3.54016   
   307. RY*(  11) O  14                  0.00000    49.36734   
   308. RY*(  12) O  14                  0.00000     4.94502   
   309. RY*(  13) O  14                  0.00001     3.15389   
   310. RY*(  14) O  14                  0.00000     3.11341   
   311. RY*(  15) O  14                  0.00000     2.27993   
   312. RY*(  16) O  14                  0.00001     1.87067   
   313. RY*(  17) O  14                  0.00000     2.97751   
   314. RY*(   1)Br  15                  0.00295     0.56488   
   315. RY*(   2)Br  15                  0.00142     0.58152   
   316. RY*(   3)Br  15                  0.00073     0.43722   
   317. RY*(   4)Br  15                  0.00017     0.95483   
   318. RY*(   5)Br  15                  0.00005     0.64603   
   319. RY*(   6)Br  15                  0.00004     0.68725   
   320. RY*(   7)Br  15                  0.00003     1.67233   
   321. RY*(   8)Br  15                  0.00004     0.54904   
   322. RY*(   9)Br  15                  0.00000    10.77216   
   323. RY*(  10)Br  15                  0.00000   285.23544   
   324. RY*(  11)Br  15                  0.00001     0.35477   
   325. RY*(  12)Br  15                  0.00001     0.60012   
   326. RY*(  13)Br  15                  0.00000     3.31889   
   327. RY*(  14)Br  15                  0.00000    10.60199   
   328. RY*(  15)Br  15                  0.00000   285.23749   
   329. RY*(  16)Br  15                  0.00000    14.54619   
   330. RY*(  17)Br  15                  0.00000     0.50049   
   331. RY*(  18)Br  15                  0.00000     2.91866   
   332. RY*(  19)Br  15                  0.00000    10.73490   
   333. RY*(  20)Br  15                  0.00000   285.23246   
   334. RY*(  21)Br  15                  0.00000    84.88175   
   335. RY*(  22)Br  15                  0.00000     4.23241   
   336. RY*(  23)Br  15                  0.00000   975.35838   
   337. RY*(  24)Br  15                  0.00000     4.11844   
   338. RY*(  25)Br  15                  0.00001     0.69610   
   339. RY*(  26)Br  15                  0.00000     4.08931   
   340. RY*(  27)Br  15                  0.00001     0.45308   
   341. RY*(  28)Br  15                  0.00000     4.18725   
   342. RY*(  29)Br  15                  0.00000     2.65974   
   343. RY*(  30)Br  15                  0.00000     4.17069   
   344. RY*(   1) H  16                  0.00148     0.51476   
   345. RY*(   2) H  16                  0.00028     2.27814   
   346. RY*(   3) H  16                  0.00027     1.57165   
   347. RY*(   4) H  16                  0.00011     1.93859   
   348. RY*(   5) H  16                  0.00008     0.56038   
   349. RY*(   6) H  16                  0.00004     2.56294   
   350. RY*(   1) H  17                  0.00090     0.70957   
   351. RY*(   2) H  17                  0.00022     2.25976   
   352. RY*(   3) H  17                  0.00020     1.56168   
   353. RY*(   4) H  17                  0.00012     0.40867   
   354. RY*(   5) H  17                  0.00009     1.80965   
   355. RY*(   6) H  17                  0.00003     2.43272   
   356. RY*(   1) H  18                  0.00072     0.79052   
   357. RY*(   2) H  18                  0.00022     2.18265   
   358. RY*(   3) H  18                  0.00018     1.57140   
   359. RY*(   4) H  18                  0.00016     1.67617   
   360. RY*(   5) H  18                  0.00008     0.54147   
   361. RY*(   6) H  18                  0.00003     2.35570   
   362. RY*(   1) H  19                  0.00074     0.74879   
   363. RY*(   2) H  19                  0.00023     2.19763   
   364. RY*(   3) H  19                  0.00019     1.57209   
   365. RY*(   4) H  19                  0.00017     1.65491   
   366. RY*(   5) H  19                  0.00008     0.63632   
   367. RY*(   6) H  19                  0.00004     2.33199   
   368. RY*(   1) H  20                  0.00282     0.55110   
   369. RY*(   2) H  20                  0.00056     1.54545   
   370. RY*(   3) H  20                  0.00052     1.52259   
   371. RY*(   4) H  20                  0.00027     1.32223   
   372. RY*(   5) H  20                  0.00016     1.87663   
   373. RY*(   6) H  20                  0.00004     2.50637   
   374. RY*(   1) H  21                  0.00143     0.52569   
   375. RY*(   2) H  21                  0.00036     1.84969   
   376. RY*(   3) H  21                  0.00016     2.23743   
   377. RY*(   4) H  21                  0.00011     1.88198   
   378. RY*(   5) H  21                  0.00008     0.94769   
   379. RY*(   6) H  21                  0.00008     1.92356   
   380. RY*(   1) H  22                  0.00143     0.52695   
   381. RY*(   2) H  22                  0.00036     1.84767   
   382. RY*(   3) H  22                  0.00016     2.23193   
   383. RY*(   4) H  22                  0.00011     1.89030   
   384. RY*(   5) H  22                  0.00008     0.94810   
   385. RY*(   6) H  22                  0.00008     1.91908   
   386. BD*(   1) C   1 - C   2          0.02351     0.52367   
   387. BD*(   2) C   1 - C   2          0.40771    -0.01271  398(v),393(v),404(r),74(g)
                                                    80(g),94(g),108(v),93(g)
   388. BD*(   1) C   1 - C   6          0.01570     0.54465   
   389. BD*(   1) C   1 - H  16          0.01318     0.41133   
   390. BD*(   1) C   2 - C   3          0.02016     0.51548   
   391. BD*(   1) C   2 - N   7          0.02839     0.38293   
   392. BD*(   1) C   3 - C   4          0.01501     0.55176   
   393. BD*(   2) C   3 - C   4          0.31970    -0.00420  398(v),387(v),127(g),109(g)
   394. BD*(   1) C   3 - H  17          0.01250     0.39762   
   395. BD*(   1) C   4 - C   5          0.02628     0.53930   
   396. BD*(   1) C   4 - H  18          0.01348     0.41176   
   397. BD*(   1) C   5 - C   6          0.02586     0.54486   
   398. BD*(   2) C   5 - C   6          0.38746    -0.01172  387(v),393(v),159(g),142(g)
                                                    125(v),314(v)
   399. BD*(   1) C   5 -Br  15          0.03351     0.07245   
   400. BD*(   1) C   6 - H  19          0.01341     0.41124   
   401. BD*(   1) N   7 - C   8          0.02710     0.43603   
   402. BD*(   1) N   7 - H  20          0.02202     0.34071   
   403. BD*(   1) C   8 - C   9          0.02581     0.57348   
   404. BD*(   2) C   8 - C   9          0.31162    -0.01521  413(v),387(r),410(v),409(v)
                                                    210(g),196(g),201(g),276(v)
                                                    194(g),175(v)
   405. BD*(   1) C   8 - C  10          0.02996     0.34543   
   406. BD*(   1) C   9 - C  11          0.08163     0.42373   
   407. BD*(   1) C   9 -Cl  13          0.02758     0.13761   
   408. BD*(   1) C  10 - O  12          0.01573     0.25035   
   409. BD*(   1) C  10 - H  21          0.02289     0.34659   
   410. BD*(   1) C  10 - H  22          0.02289     0.34654   
   411. BD*(   1) C  11 - O  12          0.12148     0.30401  408(g),405(v),243(g),407(v)
                                                    403(v),248(g),251(g),263(g)
   412. BD*(   1) C  11 - O  14          0.01254     0.63368   
   413. BD*(   2) C  11 - O  14          0.28552     0.00678  404(v),244(g),298(g),249(g)
                                                    310(g)
       -------------------------------
              Total Lewis  139.41535  ( 98.1798%)
        Valence non-Lewis    2.36262  (  1.6638%)
        Rydberg non-Lewis    0.22202  (  0.1564%)
       -------------------------------
            Total unit  1  142.00000  (100.0000%)
           Charge unit  1    0.00000
 Leave Link  607 at Sat Jul 06 11:58:54 2019, MaxMem=  209715200 cpu:       4.0
 (Enter C:\G09W\l9999.exe)
 1|1|UNPC-CCSC-2005544|FOpt|RB3LYP|6-311++G(d,p)|C10H7Br1Cl1N1O2|EDUARD
 O.MELO|06-Jul-2019|0||#p opt b3lyp/6-311++g(d,p) pop=nbo geom=connecti
 vity||Title Card Required||0,1|C,-0.7579533308,-0.8828426943,-0.001414
 3254|C,-0.1942418861,0.3987510852,0.0034626592|C,-1.0546066208,1.50853
 08236,0.0077391783|C,-2.4327877074,1.3489102674,0.0072203831|C,-2.9752
 919679,0.0662132829,0.0024688837|C,-2.1420261265,-1.0449221505,-0.0018
 130069|N,1.184942886,0.6655086365,0.0044030482|C,2.2761445078,-0.14736
 26454,0.0024315764|C,3.5666810243,0.2623182626,0.0017872159|C,2.296345
 5691,-1.6565395876,0.0016516122|C,4.473726508,-0.8828331406,0.00171117
 97|O,3.6757312833,-2.0185583528,0.0014230344|Cl,4.112886901,1.90138117
 23,0.002129319|O,5.6688131657,-0.939192129,0.0004629305|Br,-4.87461437
 39,-0.1648672895,0.0018044259|H,-0.1458158773,-1.7710279362,-0.0051070
 622|H,-0.6389974696,2.5109064438,0.0115824085|H,-3.077407335,2.2181988
 816,0.0105506824|H,-2.5612236297,-2.042657772,-0.0056037305|H,1.420738
 6816,1.6500714643,0.0056605099|H,1.8240201737,-2.0777211145,0.89368661
 76|H,1.8244016244,-2.0767455079,-0.8910425398||Version=IA32W-G09RevA.0
 2|State=1-A|HF=-3625.0027297|RMSD=3.788e-009|RMSF=4.218e-005|Dipole=-2
 .0654051,0.5659119,0.0020121|Quadrupole=-25.7253834,16.2237087,9.50167
 47,5.6705226,0.0132133,0.0280278|PG=C01 [X(C10H7Br1Cl1N1O2)]||@


 OLD HORSE! OLD HORSE! WHAT BROUGHT YOU HERE?
 FROM SACARAP' TO PORTLAND PIER
 I'VE CARTED STONE THIS MANY A YEAR;
 TILL, KILLED BY BLOWS AND SORE ABUSE,
 THEY SALTED ME DOWN FOR SAILORS' USE.
 THE SAILORS THEY DO ME DESPISE;
 THEY TURN ME OVER AND DAMN MY EYES;
 CUT OFF MY MEAT, AND SCRAPE MY BONES,
 AND PITCH ME OVER TO DAVY JONES.

    SAILORS' COMPLAINT ABOUT THE BEEF
    SERVED ON SHIPBOARD, CIRCA 1835.
 Job cpu time:  0 days  0 hours 44 minutes 40.0 seconds.
 File lengths (MBytes):  RWF=    107 Int=      0 D2E=      0 Chk=     10 Scr=      1
 Normal termination of Gaussian 09 at Sat Jul 06 11:58:55 2019.
