 Entering Link 1 = C:\G09W\l1.exe PID=      4796.
  
 Copyright (c) 1988,1990,1992,1993,1995,1998,2003,2009, Gaussian, Inc.
                  All Rights Reserved.
  
 This is part of the Gaussian(R) 09 program.  It is based on
 the Gaussian(R) 03 system (copyright 2003, Gaussian, Inc.),
 the Gaussian(R) 98 system (copyright 1998, Gaussian, Inc.),
 the Gaussian(R) 94 system (copyright 1995, Gaussian, Inc.),
 the Gaussian 92(TM) system (copyright 1992, Gaussian, Inc.),
 the Gaussian 90(TM) system (copyright 1990, Gaussian, Inc.),
 the Gaussian 88(TM) system (copyright 1988, Gaussian, Inc.),
 the Gaussian 86(TM) system (copyright 1986, Carnegie Mellon
 University), and the Gaussian 82(TM) system (copyright 1983,
 Carnegie Mellon University). Gaussian is a federally registered
 trademark of Gaussian, Inc.
  
 This software contains proprietary and confidential information,
 including trade secrets, belonging to Gaussian, Inc.
  
 This software is provided under written license and may be
 used, copied, transmitted, or stored only in accord with that
 written license.
  
 The following legend is applicable only to US Government
 contracts under FAR:
  
                    RESTRICTED RIGHTS LEGEND
  
 Use, reproduction and disclosure by the US Government is
 subject to restrictions as set forth in subparagraphs (a)
 and (c) of the Commercial Computer Software - Restricted
 Rights clause in FAR 52.227-19.
  
 Gaussian, Inc.
 340 Quinnipiac St., Bldg. 40, Wallingford CT 06492
  
  
 ---------------------------------------------------------------
 Warning -- This program may not be used in any manner that
 competes with the business of Gaussian, Inc. or will provide
 assistance to any competitor of Gaussian, Inc.  The licensee
 of this program is prohibited from giving any competitor of
 Gaussian, Inc. access to this program.  By using this program,
 the user acknowledges that Gaussian, Inc. is engaged in the
 business of creating and licensing software in the field of
 computational chemistry and represents and warrants to the
 licensee that it is not a competitor of Gaussian, Inc. and that
 it will not use this program in any manner prohibited above.
 ---------------------------------------------------------------
  

 Cite this work as:
 Gaussian 09, Revision A.02,
 M. J. Frisch, G. W. Trucks, H. B. Schlegel, G. E. Scuseria, 
 M. A. Robb, J. R. Cheeseman, G. Scalmani, V. Barone, B. Mennucci, 
 G. A. Petersson, H. Nakatsuji, M. Caricato, X. Li, H. P. Hratchian, 
 A. F. Izmaylov, J. Bloino, G. Zheng, J. L. Sonnenberg, M. Hada, 
 M. Ehara, K. Toyota, R. Fukuda, J. Hasegawa, M. Ishida, T. Nakajima, 
 Y. Honda, O. Kitao, H. Nakai, T. Vreven, J. A. Montgomery, Jr., 
 J. E. Peralta, F. Ogliaro, M. Bearpark, J. J. Heyd, E. Brothers, 
 K. N. Kudin, V. N. Staroverov, R. Kobayashi, J. Normand, 
 K. Raghavachari, A. Rendell, J. C. Burant, S. S. Iyengar, J. Tomasi, 
 M. Cossi, N. Rega, J. M. Millam, M. Klene, J. E. Knox, J. B. Cross, 
 V. Bakken, C. Adamo, J. Jaramillo, R. Gomperts, R. E. Stratmann, 
 O. Yazyev, A. J. Austin, R. Cammi, C. Pomelli, J. W. Ochterski, 
 R. L. Martin, K. Morokuma, V. G. Zakrzewski, G. A. Voth, 
 P. Salvador, J. J. Dannenberg, S. Dapprich, A. D. Daniels, 
 O. Farkas, J. B. Foresman, J. V. Ortiz, J. Cioslowski, 
 and D. J. Fox, Gaussian, Inc., Wallingford CT, 2009.
 
 ******************************************
 Gaussian 09:  IA32W-G09RevA.02 11-Jun-2009
                05-Jul-2019 
 ******************************************
 %nprocshared=4
 Will use up to    4 processors via shared memory.
 %mem=1600MB
 ----------------------------------------------------
 #p opt b3lyp/6-311++g(d,p) pop=nbo geom=connectivity
 ----------------------------------------------------
 1/14=-1,18=20,19=15,26=3,38=1,57=2/1,3;
 2/9=110,12=2,17=6,18=5,40=1/2;
 3/5=4,6=6,7=1111,11=2,16=1,25=1,30=1,71=1,74=-5/1,2,3;
 4//1;
 5/5=2,38=5/2;
 6/7=2,8=2,9=2,10=2,28=1/1,7;
 7//1,2,3,16;
 1/14=-1,18=20,19=15/3(2);
 2/9=110/2;
 99//99;
 2/9=110/2;
 3/5=4,6=6,7=1111,11=2,16=1,25=1,30=1,71=1,74=-5/1,2,3;
 4/5=5,16=3/1;
 5/5=2,38=5/2;
 7//1,2,3,16;
 1/14=-1,18=20,19=15/3(-5);
 2/9=110/2;
 6/7=2,8=2,9=2,10=2,19=2,28=1/1,7;
 99/9=1/99;
 Leave Link    1 at Fri Jul 05 22:15:03 2019, MaxMem=  209715200 cpu:       0.0
 (Enter C:\G09W\l101.exe)
 ------
 8e.log
 ------
 Symbolic Z-matrix:
 Charge =  0 Multiplicity = 1
 C                    -2.37118  -0.29944   1.20741 
 C                    -1.68079  -0.46042   0.0187 
 C                    -2.37674  -0.43872  -1.18238 
 C                    -3.74594  -0.25189  -1.18714 
 C                    -4.45232  -0.08366   0.00103 
 C                    -3.7444   -0.10973   1.19465 
 N                    -0.26868  -0.66501   0.02716 
 C                     0.64764   0.31657   0.00484 
 C                     1.98054   0.23595  -0.00208 
 C                     0.28782   1.77997  -0.01854 
 C                     2.55626   1.57763  -0.02963 
 O                     1.52064   2.45019  -0.03853 
 Br                    3.00165  -1.3273    0.0171 
 O                     3.68281   1.92717  -0.04328 
 C                    -5.95045   0.10666  -0.01927 
 H                    -1.83454  -0.32622   2.13918 
 H                    -1.84121  -0.57014  -2.1059 
 H                    -4.27228  -0.23587  -2.12591 
 H                    -4.26575   0.01637   2.12719 
 H                     0.07857  -1.5985    0.02973 
 H                    -0.28528   2.03828  -0.9004 
 H                    -0.27347   2.07068   0.86061 
 H                    -6.45196  -0.80739  -0.32352 
 H                    -6.32604   0.3819    0.95884 
 H                    -6.23547   0.88498  -0.71949 
 
 NAtoms=     25 NQM=     25 NQMF=      0 NMic=      0 NMicF=      0 NTot=     25.
                    Isotopes and Nuclear Properties:
 (Nuclear quadrupole moments (NQMom) in fm**2, nuclear magnetic moments (NMagM)
  in nuclear magnetons)

  Atom         1           2           3           4           5           6           7           8           9          10
 IAtWgt=          12          12          12          12          12          12          14          12          12          12
 AtmWgt=  12.0000000  12.0000000  12.0000000  12.0000000  12.0000000  12.0000000  14.0030740  12.0000000  12.0000000  12.0000000
 NucSpn=           0           0           0           0           0           0           2           0           0           0
 AtZEff=   0.0000000   0.0000000   0.0000000   0.0000000   0.0000000   0.0000000   0.0000000   0.0000000   0.0000000   0.0000000
 NQMom=    0.0000000   0.0000000   0.0000000   0.0000000   0.0000000   0.0000000   2.0440000   0.0000000   0.0000000   0.0000000
 NMagM=    0.0000000   0.0000000   0.0000000   0.0000000   0.0000000   0.0000000   0.4037610   0.0000000   0.0000000   0.0000000

  Atom        11          12          13          14          15          16          17          18          19          20
 IAtWgt=          12          16          79          16          12           1           1           1           1           1
 AtmWgt=  12.0000000  15.9949146  78.9183361  15.9949146  12.0000000   1.0078250   1.0078250   1.0078250   1.0078250   1.0078250
 NucSpn=           0           0           3           0           0           1           1           1           1           1
 AtZEff=   0.0000000   0.0000000   0.0000000   0.0000000   0.0000000   0.0000000   0.0000000   0.0000000   0.0000000   0.0000000
 NQMom=    0.0000000   0.0000000  31.3000000   0.0000000   0.0000000   0.0000000   0.0000000   0.0000000   0.0000000   0.0000000
 NMagM=    0.0000000   0.0000000   2.1063990   0.0000000   0.0000000   2.7928460   2.7928460   2.7928460   2.7928460   2.7928460

  Atom        21          22          23          24          25
 IAtWgt=           1           1           1           1           1
 AtmWgt=   1.0078250   1.0078250   1.0078250   1.0078250   1.0078250
 NucSpn=           1           1           1           1           1
 AtZEff=   0.0000000   0.0000000   0.0000000   0.0000000   0.0000000
 NQMom=    0.0000000   0.0000000   0.0000000   0.0000000   0.0000000
 NMagM=    2.7928460   2.7928460   2.7928460   2.7928460   2.7928460
 Leave Link  101 at Fri Jul 05 22:15:03 2019, MaxMem=  209715200 cpu:       0.0
 (Enter C:\G09W\l103.exe)

 GradGradGradGradGradGradGradGradGradGradGradGradGradGradGradGradGradGrad
 Berny optimization.
 Initialization pass.
                           ----------------------------
                           !    Initial Parameters    !
                           ! (Angstroms and Degrees)  !
 --------------------------                            --------------------------
 ! Name  Definition              Value          Derivative Info.                !
 --------------------------------------------------------------------------------
 ! R1    R(1,2)                  1.384          estimate D2E/DX2                !
 ! R2    R(1,6)                  1.3863         estimate D2E/DX2                !
 ! R3    R(1,16)                 1.0756         estimate D2E/DX2                !
 ! R4    R(2,3)                  1.3883         estimate D2E/DX2                !
 ! R5    R(2,7)                  1.4269         estimate D2E/DX2                !
 ! R6    R(3,4)                  1.3819         estimate D2E/DX2                !
 ! R7    R(3,17)                 1.0756         estimate D2E/DX2                !
 ! R8    R(4,5)                  1.3925         estimate D2E/DX2                !
 ! R9    R(4,18)                 1.0764         estimate D2E/DX2                !
 ! R10   R(5,6)                  1.388          estimate D2E/DX2                !
 ! R11   R(5,15)                 1.5103         estimate D2E/DX2                !
 ! R12   R(6,19)                 1.0758         estimate D2E/DX2                !
 ! R13   R(7,8)                  1.343          estimate D2E/DX2                !
 ! R14   R(7,20)                 0.996          estimate D2E/DX2                !
 ! R15   R(8,9)                  1.3354         estimate D2E/DX2                !
 ! R16   R(8,10)                 1.5072         estimate D2E/DX2                !
 ! R17   R(9,11)                 1.4602         estimate D2E/DX2                !
 ! R18   R(9,13)                 1.8673         estimate D2E/DX2                !
 ! R19   R(10,12)                1.4034         estimate D2E/DX2                !
 ! R20   R(10,21)                1.083          estimate D2E/DX2                !
 ! R21   R(10,22)                1.0828         estimate D2E/DX2                !
 ! R22   R(11,12)                1.3542         estimate D2E/DX2                !
 ! R23   R(11,14)                1.1796         estimate D2E/DX2                !
 ! R24   R(15,23)                1.0861         estimate D2E/DX2                !
 ! R25   R(15,24)                1.0833         estimate D2E/DX2                !
 ! R26   R(15,25)                1.0851         estimate D2E/DX2                !
 ! A1    A(2,1,6)              120.1399         estimate D2E/DX2                !
 ! A2    A(2,1,16)             119.4892         estimate D2E/DX2                !
 ! A3    A(6,1,16)             120.3706         estimate D2E/DX2                !
 ! A4    A(1,2,3)              119.4174         estimate D2E/DX2                !
 ! A5    A(1,2,7)              120.3473         estimate D2E/DX2                !
 ! A6    A(3,2,7)              120.2299         estimate D2E/DX2                !
 ! A7    A(2,3,4)              120.1177         estimate D2E/DX2                !
 ! A8    A(2,3,17)             119.4271         estimate D2E/DX2                !
 ! A9    A(4,3,17)             120.4551         estimate D2E/DX2                !
 ! A10   A(3,4,5)              121.0652         estimate D2E/DX2                !
 ! A11   A(3,4,18)             119.3092         estimate D2E/DX2                !
 ! A12   A(5,4,18)             119.6257         estimate D2E/DX2                !
 ! A13   A(4,5,6)              118.2148         estimate D2E/DX2                !
 ! A14   A(4,5,15)             120.4606         estimate D2E/DX2                !
 ! A15   A(6,5,15)             121.3215         estimate D2E/DX2                !
 ! A16   A(1,6,5)              121.044          estimate D2E/DX2                !
 ! A17   A(1,6,19)             119.2155         estimate D2E/DX2                !
 ! A18   A(5,6,19)             119.7403         estimate D2E/DX2                !
 ! A19   A(2,7,8)              124.7739         estimate D2E/DX2                !
 ! A20   A(2,7,20)             118.6486         estimate D2E/DX2                !
 ! A21   A(8,7,20)             116.5635         estimate D2E/DX2                !
 ! A22   A(7,8,9)              129.5688         estimate D2E/DX2                !
 ! A23   A(7,8,10)             123.1634         estimate D2E/DX2                !
 ! A24   A(9,8,10)             107.2679         estimate D2E/DX2                !
 ! A25   A(8,9,11)             109.765          estimate D2E/DX2                !
 ! A26   A(8,9,13)             126.6071         estimate D2E/DX2                !
 ! A27   A(11,9,13)            123.6278         estimate D2E/DX2                !
 ! A28   A(8,10,12)            104.7265         estimate D2E/DX2                !
 ! A29   A(8,10,21)            111.7499         estimate D2E/DX2                !
 ! A30   A(8,10,22)            111.8289         estimate D2E/DX2                !
 ! A31   A(12,10,21)           109.8389         estimate D2E/DX2                !
 ! A32   A(12,10,22)           109.7986         estimate D2E/DX2                !
 ! A33   A(21,10,22)           108.8319         estimate D2E/DX2                !
 ! A34   A(9,11,12)            106.8955         estimate D2E/DX2                !
 ! A35   A(9,11,14)            130.4665         estimate D2E/DX2                !
 ! A36   A(12,11,14)           122.638          estimate D2E/DX2                !
 ! A37   A(10,12,11)           111.3451         estimate D2E/DX2                !
 ! A38   A(5,15,23)            110.8396         estimate D2E/DX2                !
 ! A39   A(5,15,24)            111.3339         estimate D2E/DX2                !
 ! A40   A(5,15,25)            111.0775         estimate D2E/DX2                !
 ! A41   A(23,15,24)           107.8585         estimate D2E/DX2                !
 ! A42   A(23,15,25)           107.5541         estimate D2E/DX2                !
 ! A43   A(24,15,25)           108.0203         estimate D2E/DX2                !
 ! D1    D(6,1,2,3)             -0.415          estimate D2E/DX2                !
 ! D2    D(6,1,2,7)           -179.5741         estimate D2E/DX2                !
 ! D3    D(16,1,2,3)           179.3716         estimate D2E/DX2                !
 ! D4    D(16,1,2,7)             0.2125         estimate D2E/DX2                !
 ! D5    D(2,1,6,5)              0.3125         estimate D2E/DX2                !
 ! D6    D(2,1,6,19)          -179.8423         estimate D2E/DX2                !
 ! D7    D(16,1,6,5)          -179.4722         estimate D2E/DX2                !
 ! D8    D(16,1,6,19)            0.3731         estimate D2E/DX2                !
 ! D9    D(1,2,3,4)              0.2828         estimate D2E/DX2                !
 ! D10   D(1,2,3,17)          -179.609          estimate D2E/DX2                !
 ! D11   D(7,2,3,4)            179.4429         estimate D2E/DX2                !
 ! D12   D(7,2,3,17)            -0.4489         estimate D2E/DX2                !
 ! D13   D(1,2,7,8)            -88.4996         estimate D2E/DX2                !
 ! D14   D(1,2,7,20)            92.9121         estimate D2E/DX2                !
 ! D15   D(3,2,7,8)             92.3481         estimate D2E/DX2                !
 ! D16   D(3,2,7,20)           -86.2402         estimate D2E/DX2                !
 ! D17   D(2,3,4,5)             -0.044          estimate D2E/DX2                !
 ! D18   D(2,3,4,18)           179.9116         estimate D2E/DX2                !
 ! D19   D(17,3,4,5)           179.8467         estimate D2E/DX2                !
 ! D20   D(17,3,4,18)           -0.1978         estimate D2E/DX2                !
 ! D21   D(3,4,5,6)             -0.0625         estimate D2E/DX2                !
 ! D22   D(3,4,5,15)          -179.4258         estimate D2E/DX2                !
 ! D23   D(18,4,5,6)           179.982          estimate D2E/DX2                !
 ! D24   D(18,4,5,15)            0.6188         estimate D2E/DX2                !
 ! D25   D(4,5,6,1)             -0.0713         estimate D2E/DX2                !
 ! D26   D(4,5,6,19)          -179.9157         estimate D2E/DX2                !
 ! D27   D(15,5,6,1)           179.2862         estimate D2E/DX2                !
 ! D28   D(15,5,6,19)           -0.5582         estimate D2E/DX2                !
 ! D29   D(4,5,15,23)           69.1433         estimate D2E/DX2                !
 ! D30   D(4,5,15,24)         -170.7943         estimate D2E/DX2                !
 ! D31   D(4,5,15,25)          -50.3663         estimate D2E/DX2                !
 ! D32   D(6,5,15,23)         -110.1999         estimate D2E/DX2                !
 ! D33   D(6,5,15,24)            9.8625         estimate D2E/DX2                !
 ! D34   D(6,5,15,25)          130.2905         estimate D2E/DX2                !
 ! D35   D(2,7,8,9)           -179.3269         estimate D2E/DX2                !
 ! D36   D(2,7,8,10)             0.6351         estimate D2E/DX2                !
 ! D37   D(20,7,8,9)            -0.712          estimate D2E/DX2                !
 ! D38   D(20,7,8,10)          179.25           estimate D2E/DX2                !
 ! D39   D(7,8,9,11)           179.9479         estimate D2E/DX2                !
 ! D40   D(7,8,9,13)             0.036          estimate D2E/DX2                !
 ! D41   D(10,8,9,11)           -0.0187         estimate D2E/DX2                !
 ! D42   D(10,8,9,13)         -179.9306         estimate D2E/DX2                !
 ! D43   D(7,8,10,12)         -179.9465         estimate D2E/DX2                !
 ! D44   D(7,8,10,21)          -61.0872         estimate D2E/DX2                !
 ! D45   D(7,8,10,22)           61.2013         estimate D2E/DX2                !
 ! D46   D(9,8,10,12)            0.0228         estimate D2E/DX2                !
 ! D47   D(9,8,10,21)          118.8821         estimate D2E/DX2                !
 ! D48   D(9,8,10,22)         -118.8294         estimate D2E/DX2                !
 ! D49   D(8,9,11,12)            0.0076         estimate D2E/DX2                !
 ! D50   D(8,9,11,14)         -179.9777         estimate D2E/DX2                !
 ! D51   D(13,9,11,12)         179.9227         estimate D2E/DX2                !
 ! D52   D(13,9,11,14)          -0.0626         estimate D2E/DX2                !
 ! D53   D(8,10,12,11)          -0.0185         estimate D2E/DX2                !
 ! D54   D(21,10,12,11)       -120.1606         estimate D2E/DX2                !
 ! D55   D(22,10,12,11)        120.196          estimate D2E/DX2                !
 ! D56   D(9,11,12,10)           0.0079         estimate D2E/DX2                !
 ! D57   D(14,11,12,10)        179.9947         estimate D2E/DX2                !
 --------------------------------------------------------------------------------
 Trust Radius=3.00D-01 FncErr=1.00D-07 GrdErr=1.00D-06
 Number of steps in this run= 136 maximum allowed number of steps= 150.
 GradGradGradGradGradGradGradGradGradGradGradGradGradGradGradGradGradGrad

 Leave Link  103 at Fri Jul 05 22:15:04 2019, MaxMem=  209715200 cpu:       1.0
 (Enter C:\G09W\l202.exe)
                          Input orientation:                          
 ---------------------------------------------------------------------
 Center     Atomic      Atomic             Coordinates (Angstroms)
 Number     Number       Type             X           Y           Z
 ---------------------------------------------------------------------
      1          6           0       -2.371176   -0.299437    1.207410
      2          6           0       -1.680790   -0.460424    0.018697
      3          6           0       -2.376736   -0.438721   -1.182382
      4          6           0       -3.745935   -0.251891   -1.187141
      5          6           0       -4.452315   -0.083660    0.001032
      6          6           0       -3.744396   -0.109731    1.194647
      7          7           0       -0.268680   -0.665013    0.027155
      8          6           0        0.647644    0.316567    0.004839
      9          6           0        1.980541    0.235949   -0.002081
     10          6           0        0.287822    1.779973   -0.018541
     11          6           0        2.556257    1.577630   -0.029626
     12          8           0        1.520638    2.450190   -0.038525
     13         35           0        3.001650   -1.327296    0.017099
     14          8           0        3.682814    1.927173   -0.043275
     15          6           0       -5.950445    0.106661   -0.019265
     16          1           0       -1.834538   -0.326218    2.139182
     17          1           0       -1.841213   -0.570142   -2.105905
     18          1           0       -4.272281   -0.235870   -2.125910
     19          1           0       -4.265747    0.016368    2.127192
     20          1           0        0.078565   -1.598503    0.029731
     21          1           0       -0.285281    2.038276   -0.900401
     22          1           0       -0.273467    2.070677    0.860614
     23          1           0       -6.451962   -0.807393   -0.323521
     24          1           0       -6.326037    0.381896    0.958839
     25          1           0       -6.235471    0.884978   -0.719492
 ---------------------------------------------------------------------
                    Distance matrix (angstroms):
                    1          2          3          4          5
     1  C    0.000000
     2  C    1.384048   0.000000
     3  C    2.393854   1.388309   0.000000
     4  C    2.761539   2.400491   1.381895   0.000000
     5  C    2.415170   2.797072   2.415484   1.392490   0.000000
     6  C    1.386320   2.400899   2.762064   2.386027   1.388001
     7  N    2.438675   1.426879   2.440919   3.706277   4.223915
     8  C    3.307403   2.454692   3.335690   4.587755   5.115641
     9  C    4.548291   3.727025   4.564444   5.868124   6.440792
    10  C    3.591263   2.982650   3.657458   4.665329   5.093369
    11  C    5.416016   4.701975   5.452425   6.663679   7.202840
    12  O    4.925345   4.327134   4.984349   6.029706   6.488307
    13  Br   5.598267   4.762007   5.581698   6.938054   7.557015
    14  O    6.570601   5.871346   6.604026   7.825795   8.380080
    15  C    3.805366   4.307317   3.797589   2.520389   1.510307
    16  H    1.075591   2.130283   3.367406   3.837107   3.388698
    17  H    3.366333   2.133473   1.075617   2.138546   3.390236
    18  H    3.837872   3.371289   2.127084   1.076375   2.139968
    19  H    2.129585   3.369731   3.837805   3.365557   2.136673
    20  H    3.012595   2.095394   2.973687   4.233313   4.777494
    21  H    3.776073   3.005942   3.254107   4.159713   4.762286
    22  H    3.184037   3.015933   3.859359   4.652489   4.779416
    23  H    4.388004   4.795997   4.181032   2.894305   2.151212
    24  H    4.020812   4.813698   4.566751   3.415237   2.155219
    25  H    4.477563   4.806261   4.105640   2.776501   2.153383
                    6          7          8          9         10
     6  C    0.000000
     7  N    3.708366   0.000000
     8  C    4.570272   1.342999   0.000000
     9  C    5.858887   2.423135   1.335351   0.000000
    10  C    4.615364   2.507935   1.507175   2.291196   0.000000
    11  C    6.636585   3.607345   2.287853   1.460245   2.277469
    12  O    5.982850   3.593113   2.305720   2.261792   1.403362
    13  Br   6.955445   3.336732   2.871198   1.867289   4.125682
    14  O    7.800313   4.726383   3.436368   2.399931   3.398272
    15  C    2.527263   5.734116   6.601471   7.932058   6.458788
    16  H    2.141628   2.650915   3.336138   4.410880   3.687305
    17  H    3.837672   2.651755   3.381701   4.436402   3.796435
    18  H    3.364621   4.566035   5.389892   6.620502   5.412870
    19  H    1.075801   4.566287   5.360589   6.602888   5.333804
    20  H    4.264798   0.995987   1.997990   2.642676   3.385294
    21  H    4.579152   2.858043   2.157334   3.031388   1.082979
    22  H    4.112555   2.859839   2.158170   3.031670   1.082805
    23  H    3.181585   6.194854   7.195520   8.502881   7.225799
    24  H    2.638593   6.217365   7.038935   8.363247   6.830302
    25  H    3.295274   6.209875   6.944424   8.272773   6.621609
                   11         12         13         14         15
    11  C    0.000000
    12  O    1.354233   0.000000
    13  Br   2.939244   4.057819   0.000000
    14  O    1.179617   2.224539   3.325537   0.000000
    15  C    8.632951   7.830043   9.066287   9.803801   0.000000
    16  H    5.254279   4.869092   5.375324   6.346815   4.667651
    17  H    5.316164   4.969759   5.341699   6.403585   4.658102
    18  H    7.369676   6.717887   7.661186   8.502921   2.715053
    19  H    7.323192   6.640487   7.685895   8.458234   2.730135
    20  H    4.028685   4.298389   2.935667   5.042453   6.265696
    21  H    3.007454   2.042999   4.792995   4.061131   6.049927
    22  H    3.007152   2.042375   4.794177   4.060760   6.071213
    23  H    9.323235   8.617158   9.474022  10.500956   1.086087
    24  H    9.016762   8.175750   9.529636  10.176896   1.083287
    25  H    8.845912   7.941715   9.526863   9.995790   1.085051
                   16         17         18         19         20
    16  H    0.000000
    17  H    4.252094   0.000000
    18  H    4.913427   2.454023   0.000000
    19  H    2.455257   4.913397   4.260580   0.000000
    20  H    3.119047   3.050248   5.043156   5.087258   0.000000
    21  H    4.150915   3.267722   4.750766   5.394306   3.771431
    22  H    3.133175   4.269893   5.498181   4.665051   3.778515
    23  H    5.255192   4.948958   2.885525   3.385870   6.587748
    24  H    4.697680   5.514769   3.757023   2.396551   6.767876
    25  H    5.385836   4.832082   2.662410   3.569020   6.826131
                   21         22         23         24         25
    21  H    0.000000
    22  H    1.761353   0.000000
    23  H    6.816053   6.918039   0.000000
    24  H    6.533843   6.284523   1.753486   0.000000
    25  H    6.063628   6.280773   1.751508   1.754448   0.000000
 Stoichiometry    C11H10BrNO2
 Framework group  C1[X(C11H10BrNO2)]
 Deg. of freedom    69
 Full point group                 C1      NOp   1
 Largest Abelian subgroup         C1      NOp   1
 Largest concise Abelian subgroup C1      NOp   1
                         Standard orientation:                         
 ---------------------------------------------------------------------
 Center     Atomic      Atomic             Coordinates (Angstroms)
 Number     Number       Type             X           Y           Z
 ---------------------------------------------------------------------
      1          6           0       -2.371176   -0.299437    1.207410
      2          6           0       -1.680790   -0.460424    0.018697
      3          6           0       -2.376736   -0.438721   -1.182382
      4          6           0       -3.745935   -0.251891   -1.187141
      5          6           0       -4.452315   -0.083660    0.001032
      6          6           0       -3.744396   -0.109731    1.194647
      7          7           0       -0.268680   -0.665013    0.027155
      8          6           0        0.647644    0.316567    0.004839
      9          6           0        1.980541    0.235949   -0.002081
     10          6           0        0.287822    1.779973   -0.018541
     11          6           0        2.556257    1.577630   -0.029626
     12          8           0        1.520638    2.450190   -0.038525
     13         35           0        3.001650   -1.327296    0.017099
     14          8           0        3.682814    1.927173   -0.043275
     15          6           0       -5.950445    0.106661   -0.019265
     16          1           0       -1.834538   -0.326218    2.139182
     17          1           0       -1.841213   -0.570142   -2.105905
     18          1           0       -4.272281   -0.235870   -2.125910
     19          1           0       -4.265747    0.016368    2.127192
     20          1           0        0.078565   -1.598503    0.029731
     21          1           0       -0.285281    2.038276   -0.900401
     22          1           0       -0.273467    2.070677    0.860614
     23          1           0       -6.451962   -0.807393   -0.323521
     24          1           0       -6.326037    0.381896    0.958839
     25          1           0       -6.235471    0.884978   -0.719492
 ---------------------------------------------------------------------
 Rotational constants (GHZ):      1.0546618      0.2014464      0.1799476
 Leave Link  202 at Fri Jul 05 22:15:04 2019, MaxMem=  209715200 cpu:       0.0
 (Enter C:\G09W\l301.exe)
 Standard basis: 6-311++G(d,p) (5D, 7F)
 Ernie: Thresh=  0.10000D-02 Tol=  0.10000D-05 Strict=F.
 There are   426 symmetry adapted basis functions of A   symmetry.
 Integral buffers will be    262144 words long.
 Raffenetti 2 integral format.
 Two-electron integral symmetry is turned on.
   426 basis functions,   688 primitive gaussians,   443 cartesian basis functions
    67 alpha electrons       67 beta electrons
       nuclear repulsion energy      1244.0381146718 Hartrees.
 IExCor=  402 DFT=T Ex+Corr=B3LYP ExCW=0 ScaHFX=  0.200000
 ScaDFX=  0.800000  0.720000  1.000000  0.810000 ScalE2=  1.000000  1.000000
 IRadAn=      0 IRanWt=     -1 IRanGd=            0 ICorTp=0
 NAtoms=   25 NActive=   25 NUniq=   25 SFac= 7.50D-01 NAtFMM=   80 NAOKFM=F Big=F
 Leave Link  301 at Fri Jul 05 22:15:04 2019, MaxMem=  209715200 cpu:       0.0
 (Enter C:\G09W\l302.exe)
 NPDir=0 NMtPBC=     1 NCelOv=     1 NCel=       1 NClECP=     1 NCelD=      1
         NCelK=      1 NCelE2=     1 NClLst=     1 CellRange=     0.0.
 One-electron integrals computed using PRISM.
 NBasis=   426 RedAO= T  NBF=   426
 NBsUse=   425 1.00D-06 NBFU=   425
 Precomputing XC quadrature grid using
 IXCGrd= 2 IRadAn=           0 IRanWt=          -1 IRanGd=           0 AccXCQ= 1.00D-10.
 NRdTot=    1628 NPtTot=      211506 NUsed=      219095 NTot=      219111
 NSgBfM=   437   437   437   437   437 NAtAll=    25    25.
 Leave Link  302 at Fri Jul 05 22:15:05 2019, MaxMem=  209715200 cpu:       1.0
 (Enter C:\G09W\l303.exe)
 DipDrv:  MaxL=1.
 Leave Link  303 at Fri Jul 05 22:15:05 2019, MaxMem=  209715200 cpu:       0.0
 (Enter C:\G09W\l401.exe)
 Harris functional with IExCor=  402 diagonalized for initial guess.
 ExpMin= 3.50D-02 ExpMax= 4.40D+05 ExpMxC= 1.51D+04 IAcc=3 IRadAn=         0 AccDes= 0.00D+00
 HarFok:  IExCor=  402 AccDes= 0.00D+00 IRadAn=         0 IDoV= 1
 ScaDFX=  1.000000  1.000000  1.000000  1.000000
 FoFCou: FMM=F IPFlag=           0 FMFlag=      100000 FMFlg1=           0
         NFxFlg=           0 DoJE=T BraDBF=F KetDBF=T FulRan=T
         Omega=  0.000000  0.000000  1.000000  0.000000  0.000000 ICntrl=     500 IOpCl=  0
         NMat0=    1 NMatS0=    1 NMatT0=    0 NMatD0=    1 NMtDS0=    0 NMtDT0=    0
         I1Cent=           4 NGrid=           0.
 Petite list used in FoFCou.
 Harris En= -3204.92860716706    
 Initial guess orbital symmetries:
       Occupied  (A) (A) (A) (A) (A) (A) (A) (A) (A) (A) (A) (A)
                 (A) (A) (A) (A) (A) (A) (A) (A) (A) (A) (A) (A)
                 (A) (A) (A) (A) (A) (A) (A) (A) (A) (A) (A) (A)
                 (A) (A) (A) (A) (A) (A) (A) (A) (A) (A) (A) (A)
                 (A) (A) (A) (A) (A) (A) (A) (A) (A) (A) (A) (A)
                 (A) (A) (A) (A) (A) (A) (A)
       Virtual   (A) (A) (A) (A) (A) (A) (A) (A) (A) (A) (A) (A)
                 (A) (A) (A) (A) (A) (A) (A) (A) (A) (A) (A) (A)
                 (A) (A) (A) (A) (A) (A) (A) (A) (A) (A) (A) (A)
                 (A) (A) (A) (A) (A) (A) (A) (A) (A) (A) (A) (A)
                 (A) (A) (A) (A) (A) (A) (A) (A) (A) (A) (A) (A)
                 (A) (A) (A) (A) (A) (A) (A) (A) (A) (A) (A) (A)
                 (A) (A) (A) (A) (A) (A) (A) (A) (A) (A) (A) (A)
                 (A) (A) (A) (A) (A) (A) (A) (A) (A) (A) (A) (A)
                 (A) (A) (A) (A) (A) (A) (A) (A) (A) (A) (A) (A)
                 (A) (A) (A) (A) (A) (A) (A) (A) (A) (A) (A) (A)
                 (A) (A) (A) (A) (A) (A) (A) (A) (A) (A) (A) (A)
                 (A) (A) (A) (A) (A) (A) (A) (A) (A) (A) (A) (A)
                 (A) (A) (A) (A) (A) (A) (A) (A) (A) (A) (A) (A)
                 (A) (A) (A) (A) (A) (A) (A) (A) (A) (A) (A) (A)
                 (A) (A) (A) (A) (A) (A) (A) (A) (A) (A) (A) (A)
                 (A) (A) (A) (A) (A) (A) (A) (A) (A) (A) (A) (A)
                 (A) (A) (A) (A) (A) (A) (A) (A) (A) (A) (A) (A)
                 (A) (A) (A) (A) (A) (A) (A) (A) (A) (A) (A) (A)
                 (A) (A) (A) (A) (A) (A) (A) (A) (A) (A) (A) (A)
                 (A) (A) (A) (A) (A) (A) (A) (A) (A) (A) (A) (A)
                 (A) (A) (A) (A) (A) (A) (A) (A) (A) (A) (A) (A)
                 (A) (A) (A) (A) (A) (A) (A) (A) (A) (A) (A) (A)
                 (A) (A) (A) (A) (A) (A) (A) (A) (A) (A) (A) (A)
                 (A) (A) (A) (A) (A) (A) (A) (A) (A) (A) (A) (A)
                 (A) (A) (A) (A) (A) (A) (A) (A) (A) (A) (A) (A)
                 (A) (A) (A) (A) (A) (A) (A) (A) (A) (A) (A) (A)
                 (A) (A) (A) (A) (A) (A) (A) (A) (A) (A) (A) (A)
                 (A) (A) (A) (A) (A) (A) (A) (A) (A) (A) (A) (A)
                 (A) (A) (A) (A) (A) (A) (A) (A) (A) (A) (A) (A)
                 (A) (A) (A) (A) (A) (A) (A) (A) (A) (A)
 The electronic state of the initial guess is 1-A.
 Leave Link  401 at Fri Jul 05 22:15:11 2019, MaxMem=  209715200 cpu:       6.0
 (Enter C:\G09W\l502.exe)
 Closed shell SCF:
 Requested convergence on RMS density matrix=1.00D-08 within 128 cycles.
 Requested convergence on MAX density matrix=1.00D-06.
 Requested convergence on             energy=1.00D-06.
 No special actions if energy rises.
 Using DIIS extrapolation, IDIIS=  1040.
 Integral symmetry usage will be decided dynamically.
       218882 words used for storage of precomputed grid.
 IEnd=      831174 IEndB=      831174 NGot=   209715200 MDV=   209097359
 LenX=   209097359 LenY=   208900667
 Fock matrices will be formed incrementally for  20 cycles.

 Cycle   1  Pass 1  IDiag  1:
 FoFCou: FMM=F IPFlag=           0 FMFlag=      100000 FMFlg1=           0
         NFxFlg=           0 DoJE=F BraDBF=F KetDBF=F FulRan=T
         Omega=  0.000000  0.000000  1.000000  0.000000  0.000000 ICntrl=       0 IOpCl=  0
         NMat0=    1 NMatS0=    1 NMatT0=    0 NMatD0=    1 NMtDS0=    0 NMtDT0=    0
         I1Cent=           0 NGrid=           0.
 Symmetry not used in FoFCou.
 E= -3204.22145882010    
 DIIS: error= 6.82D-02 at cycle   1 NSaved=   1.
 NSaved= 1 IEnMin= 1 EnMin= -3204.22145882010     IErMin= 1 ErrMin= 6.82D-02
 ErrMax= 6.82D-02 EMaxC= 1.00D-01 BMatC= 2.03D+00 BMatP= 2.03D+00
 IDIUse=3 WtCom= 3.18D-01 WtEn= 6.82D-01
 Coeff-Com:  0.100D+01
 Coeff-En:   0.100D+01
 Coeff:      0.100D+01
 Gap=     0.364 Goal=   None    Shift=    0.000
 GapD=    0.364 DampG=1.000 DampE=0.500 DampFc=0.5000 IDamp=-1.
 Damping current iteration by 5.00D-01
 RMSDP=4.28D-02 MaxDP=7.63D+00              OVMax= 2.66D-01

 Cycle   2  Pass 1  IDiag  1:
 RMSU=  1.43D-02    CP:  1.15D+00
 E= -3204.40395893152     Delta-E=       -0.182500111428 Rises=F Damp=T
 DIIS: error= 3.66D-02 at cycle   2 NSaved=   2.
 NSaved= 2 IEnMin= 2 EnMin= -3204.40395893152     IErMin= 2 ErrMin= 3.66D-02
 ErrMax= 3.66D-02 EMaxC= 1.00D-01 BMatC= 2.43D-01 BMatP= 2.03D+00
 IDIUse=3 WtCom= 6.34D-01 WtEn= 3.66D-01
 Coeff-Com: -0.132D+00 0.113D+01
 Coeff-En:   0.229D+00 0.771D+00
 Coeff:     -0.166D-03 0.100D+01
 Gap=     0.336 Goal=   None    Shift=    0.000
 RMSDP=2.04D-02 MaxDP=3.69D+00 DE=-1.83D-01 OVMax= 1.97D-01

 Cycle   3  Pass 1  IDiag  1:
 RMSU=  4.50D-03    CP:  9.24D-01  2.00D-01
 E= -3204.60615012275     Delta-E=       -0.202191191222 Rises=F Damp=F
 DIIS: error= 2.54D-02 at cycle   3 NSaved=   3.
 NSaved= 3 IEnMin= 3 EnMin= -3204.60615012275     IErMin= 3 ErrMin= 2.54D-02
 ErrMax= 2.54D-02 EMaxC= 1.00D-01 BMatC= 1.37D-01 BMatP= 2.43D-01
 IDIUse=3 WtCom= 7.46D-01 WtEn= 2.54D-01
 Coeff-Com: -0.141D+00 0.534D+00 0.608D+00
 Coeff-En:   0.000D+00 0.000D+00 0.100D+01
 Coeff:     -0.105D+00 0.398D+00 0.707D+00
 Gap=     0.192 Goal=   None    Shift=    0.000
 RMSDP=9.83D-03 MaxDP=1.07D+00 DE=-2.02D-01 OVMax= 2.04D-01

 Cycle   4  Pass 1  IDiag  1:
 RMSU=  4.32D-03    CP:  9.71D-01  5.63D-01  9.17D-01
 E= -3204.59677525620     Delta-E=        0.009374866546 Rises=F Damp=F
 DIIS: error= 2.57D-02 at cycle   4 NSaved=   4.
 NSaved= 4 IEnMin= 3 EnMin= -3204.60615012275     IErMin= 3 ErrMin= 2.54D-02
 ErrMax= 2.57D-02 EMaxC= 1.00D-01 BMatC= 1.40D-01 BMatP= 1.37D-01
 IDIUse=3 WtCom= 7.43D-01 WtEn= 2.57D-01
 Coeff-Com: -0.672D-01 0.187D+00 0.511D+00 0.370D+00
 Coeff-En:   0.000D+00 0.000D+00 0.517D+00 0.483D+00
 Coeff:     -0.500D-01 0.139D+00 0.513D+00 0.399D+00
 Gap=     0.238 Goal=   None    Shift=    0.000
 RMSDP=7.00D-03 MaxDP=1.08D+00 DE= 9.37D-03 OVMax= 1.03D-01

 Cycle   5  Pass 1  IDiag  1:
 RMSU=  1.96D-03    CP:  8.88D-01  3.55D-01  7.93D-01  5.70D-01
 E= -3204.70448190421     Delta-E=       -0.107706648012 Rises=F Damp=F
 DIIS: error= 2.54D-03 at cycle   5 NSaved=   5.
 NSaved= 5 IEnMin= 5 EnMin= -3204.70448190421     IErMin= 5 ErrMin= 2.54D-03
 ErrMax= 2.54D-03 EMaxC= 1.00D-01 BMatC= 1.99D-03 BMatP= 1.37D-01
 IDIUse=3 WtCom= 9.75D-01 WtEn= 2.54D-02
 Coeff-Com: -0.609D-02 0.205D-01 0.169D+00 0.181D+00 0.636D+00
 Coeff-En:   0.000D+00 0.000D+00 0.000D+00 0.000D+00 0.100D+01
 Coeff:     -0.594D-02 0.200D-01 0.165D+00 0.176D+00 0.645D+00
 Gap=     0.189 Goal=   None    Shift=    0.000
 RMSDP=1.53D-03 MaxDP=2.27D-01 DE=-1.08D-01 OVMax= 1.50D-02

 Cycle   6  Pass 1  IDiag  1:
 RMSU=  3.96D-04    CP:  9.00D-01  3.74D-01  8.93D-01  6.15D-01  6.24D-01
 E= -3204.70609414448     Delta-E=       -0.001612240269 Rises=F Damp=F
 DIIS: error= 7.62D-04 at cycle   6 NSaved=   6.
 NSaved= 6 IEnMin= 6 EnMin= -3204.70609414448     IErMin= 6 ErrMin= 7.62D-04
 ErrMax= 7.62D-04 EMaxC= 1.00D-01 BMatC= 2.52D-04 BMatP= 1.99D-03
 IDIUse=3 WtCom= 9.92D-01 WtEn= 7.62D-03
 Coeff-Com:  0.430D-02-0.919D-02 0.212D-01 0.415D-01 0.357D+00 0.585D+00
 Coeff-En:   0.000D+00 0.000D+00 0.000D+00 0.000D+00 0.714D-01 0.929D+00
 Coeff:      0.427D-02-0.912D-02 0.211D-01 0.412D-01 0.355D+00 0.587D+00
 Gap=     0.187 Goal=   None    Shift=    0.000
 RMSDP=3.05D-04 MaxDP=3.75D-02 DE=-1.61D-03 OVMax= 2.62D-03

 Cycle   7  Pass 1  IDiag  1:
 RMSU=  8.24D-05    CP:  9.01D-01  3.68D-01  8.88D-01  6.03D-01  6.58D-01
                    CP:  6.18D-01
 E= -3204.70630867225     Delta-E=       -0.000214527769 Rises=F Damp=F
 DIIS: error= 1.45D-04 at cycle   7 NSaved=   7.
 NSaved= 7 IEnMin= 7 EnMin= -3204.70630867225     IErMin= 7 ErrMin= 1.45D-04
 ErrMax= 1.45D-04 EMaxC= 1.00D-01 BMatC= 1.00D-05 BMatP= 2.52D-04
 IDIUse=3 WtCom= 9.99D-01 WtEn= 1.45D-03
 Coeff-Com:  0.176D-02-0.382D-02-0.347D-03 0.379D-02 0.107D+00 0.239D+00
 Coeff-Com:  0.652D+00
 Coeff-En:   0.000D+00 0.000D+00 0.000D+00 0.000D+00 0.000D+00 0.000D+00
 Coeff-En:   0.100D+01
 Coeff:      0.176D-02-0.381D-02-0.347D-03 0.379D-02 0.107D+00 0.239D+00
 Coeff:      0.653D+00
 Gap=     0.187 Goal=   None    Shift=    0.000
 RMSDP=1.27D-04 MaxDP=1.85D-02 DE=-2.15D-04 OVMax= 6.40D-04

 Cycle   8  Pass 1  IDiag  1:
 RMSU=  2.02D-05    CP:  8.99D-01  3.68D-01  8.81D-01  6.06D-01  6.84D-01
                    CP:  6.47D-01  8.32D-01
 E= -3204.70631699202     Delta-E=       -0.000008319767 Rises=F Damp=F
 DIIS: error= 5.97D-05 at cycle   8 NSaved=   8.
 NSaved= 8 IEnMin= 8 EnMin= -3204.70631699202     IErMin= 8 ErrMin= 5.97D-05
 ErrMax= 5.97D-05 EMaxC= 1.00D-01 BMatC= 9.21D-07 BMatP= 1.00D-05
 IDIUse=1 WtCom= 1.00D+00 WtEn= 0.00D+00
 Coeff-Com:  0.700D-03-0.151D-02-0.643D-03-0.135D-03 0.368D-01 0.914D-01
 Coeff-Com:  0.331D+00 0.543D+00
 Coeff:      0.700D-03-0.151D-02-0.643D-03-0.135D-03 0.368D-01 0.914D-01
 Coeff:      0.331D+00 0.543D+00
 Gap=     0.187 Goal=   None    Shift=    0.000
 RMSDP=1.91D-05 MaxDP=1.64D-03 DE=-8.32D-06 OVMax= 2.34D-04

 Cycle   9  Pass 1  IDiag  1:
 RMSU=  7.39D-06    CP:  8.99D-01  3.67D-01  8.81D-01  6.06D-01  6.84D-01
                    CP:  6.56D-01  8.08D-01  6.39D-01
 E= -3204.70631772752     Delta-E=       -0.000000735505 Rises=F Damp=F
 DIIS: error= 1.62D-05 at cycle   9 NSaved=   9.
 NSaved= 9 IEnMin= 9 EnMin= -3204.70631772752     IErMin= 9 ErrMin= 1.62D-05
 ErrMax= 1.62D-05 EMaxC= 1.00D-01 BMatC= 1.11D-07 BMatP= 9.21D-07
 IDIUse=1 WtCom= 1.00D+00 WtEn= 0.00D+00
 Coeff-Com:  0.199D-03-0.441D-03-0.211D-03-0.576D-03 0.861D-02 0.251D-01
 Coeff-Com:  0.117D+00 0.304D+00 0.547D+00
 Coeff:      0.199D-03-0.441D-03-0.211D-03-0.576D-03 0.861D-02 0.251D-01
 Coeff:      0.117D+00 0.304D+00 0.547D+00
 Gap=     0.187 Goal=   None    Shift=    0.000
 RMSDP=9.73D-06 MaxDP=6.14D-04 DE=-7.36D-07 OVMax= 7.25D-05

 Cycle  10  Pass 1  IDiag  1:
 RMSU=  2.06D-06    CP:  8.99D-01  3.67D-01  8.81D-01  6.06D-01  6.82D-01
                    CP:  6.55D-01  8.23D-01  7.23D-01  6.98D-01
 E= -3204.70631781986     Delta-E=       -0.000000092335 Rises=F Damp=F
 DIIS: error= 3.57D-06 at cycle  10 NSaved=  10.
 NSaved=10 IEnMin=10 EnMin= -3204.70631781986     IErMin=10 ErrMin= 3.57D-06
 ErrMax= 3.57D-06 EMaxC= 1.00D-01 BMatC= 6.94D-09 BMatP= 1.11D-07
 IDIUse=1 WtCom= 1.00D+00 WtEn= 0.00D+00
 Coeff-Com:  0.419D-04-0.976D-04-0.707D-04-0.278D-03 0.115D-02 0.456D-02
 Coeff-Com:  0.288D-01 0.101D+00 0.269D+00 0.597D+00
 Coeff:      0.419D-04-0.976D-04-0.707D-04-0.278D-03 0.115D-02 0.456D-02
 Coeff:      0.288D-01 0.101D+00 0.269D+00 0.597D+00
 Gap=     0.187 Goal=   None    Shift=    0.000
 RMSDP=2.04D-06 MaxDP=3.53D-04 DE=-9.23D-08 OVMax= 2.11D-05

 Cycle  11  Pass 1  IDiag  1:
 RMSU=  4.44D-07    CP:  8.99D-01  3.67D-01  8.81D-01  6.06D-01  6.82D-01
                    CP:  6.56D-01  8.22D-01  7.10D-01  7.35D-01  8.19D-01
 E= -3204.70631782539     Delta-E=       -0.000000005533 Rises=F Damp=F
 DIIS: error= 1.45D-06 at cycle  11 NSaved=  11.
 NSaved=11 IEnMin=11 EnMin= -3204.70631782539     IErMin=11 ErrMin= 1.45D-06
 ErrMax= 1.45D-06 EMaxC= 1.00D-01 BMatC= 8.54D-10 BMatP= 6.94D-09
 IDIUse=1 WtCom= 1.00D+00 WtEn= 0.00D+00
 Coeff-Com:  0.135D-05-0.460D-05-0.309D-04-0.744D-04-0.152D-03 0.492D-04
 Coeff-Com:  0.301D-02 0.179D-01 0.693D-01 0.297D+00 0.613D+00
 Coeff:      0.135D-05-0.460D-05-0.309D-04-0.744D-04-0.152D-03 0.492D-04
 Coeff:      0.301D-02 0.179D-01 0.693D-01 0.297D+00 0.613D+00
 Gap=     0.187 Goal=   None    Shift=    0.000
 RMSDP=5.58D-07 MaxDP=7.73D-05 DE=-5.53D-09 OVMax= 1.05D-05

 Cycle  12  Pass 1  IDiag  1:
 RMSU=  1.53D-07    CP:  8.99D-01  3.67D-01  8.81D-01  6.06D-01  6.82D-01
                    CP:  6.56D-01  8.22D-01  7.16D-01  7.36D-01  8.44D-01
                    CP:  8.01D-01
 E= -3204.70631782604     Delta-E=       -0.000000000651 Rises=F Damp=F
 DIIS: error= 9.66D-07 at cycle  12 NSaved=  12.
 NSaved=12 IEnMin=12 EnMin= -3204.70631782604     IErMin=12 ErrMin= 9.66D-07
 ErrMax= 9.66D-07 EMaxC= 1.00D-01 BMatC= 1.30D-10 BMatP= 8.54D-10
 IDIUse=1 WtCom= 1.00D+00 WtEn= 0.00D+00
 Coeff-Com: -0.491D-05 0.102D-04-0.109D-04-0.186D-04-0.274D-03-0.544D-03
 Coeff-Com: -0.113D-02 0.146D-02 0.171D-01 0.123D+00 0.351D+00 0.509D+00
 Coeff:     -0.491D-05 0.102D-04-0.109D-04-0.186D-04-0.274D-03-0.544D-03
 Coeff:     -0.113D-02 0.146D-02 0.171D-01 0.123D+00 0.351D+00 0.509D+00
 Gap=     0.187 Goal=   None    Shift=    0.000
 RMSDP=2.46D-07 MaxDP=2.20D-05 DE=-6.51D-10 OVMax= 5.18D-06

 Cycle  13  Pass 1  IDiag  1:
 RMSU=  7.88D-08    CP:  8.99D-01  3.67D-01  8.81D-01  6.06D-01  6.82D-01
                    CP:  6.56D-01  8.22D-01  7.15D-01  7.42D-01  8.51D-01
                    CP:  8.77D-01  7.58D-01
 E= -3204.70631782611     Delta-E=       -0.000000000064 Rises=F Damp=F
 DIIS: error= 2.99D-07 at cycle  13 NSaved=  13.
 NSaved=13 IEnMin=13 EnMin= -3204.70631782611     IErMin=13 ErrMin= 2.99D-07
 ErrMax= 2.99D-07 EMaxC= 1.00D-01 BMatC= 2.27D-11 BMatP= 1.30D-10
 IDIUse=1 WtCom= 1.00D+00 WtEn= 0.00D+00
 Coeff-Com: -0.282D-05 0.591D-05-0.416D-05 0.544D-06-0.134D-03-0.312D-03
 Coeff-Com: -0.107D-02-0.185D-02-0.945D-03 0.258D-01 0.111D+00 0.330D+00
 Coeff-Com:  0.537D+00
 Coeff:     -0.282D-05 0.591D-05-0.416D-05 0.544D-06-0.134D-03-0.312D-03
 Coeff:     -0.107D-02-0.185D-02-0.945D-03 0.258D-01 0.111D+00 0.330D+00
 Coeff:      0.537D+00
 Gap=     0.187 Goal=   None    Shift=    0.000
 RMSDP=8.17D-08 MaxDP=9.99D-06 DE=-6.37D-11 OVMax= 1.29D-06

 Cycle  14  Pass 1  IDiag  1:
 RMSU=  1.83D-08    CP:  8.99D-01  3.67D-01  8.81D-01  6.06D-01  6.82D-01
                    CP:  6.56D-01  8.22D-01  7.16D-01  7.42D-01  8.57D-01
                    CP:  8.50D-01  7.82D-01  6.57D-01
 E= -3204.70631782616     Delta-E=       -0.000000000051 Rises=F Damp=F
 DIIS: error= 7.30D-08 at cycle  14 NSaved=  14.
 NSaved=14 IEnMin=14 EnMin= -3204.70631782616     IErMin=14 ErrMin= 7.30D-08
 ErrMax= 7.30D-08 EMaxC= 1.00D-01 BMatC= 1.50D-12 BMatP= 2.27D-11
 IDIUse=1 WtCom= 1.00D+00 WtEn= 0.00D+00
 Coeff-Com: -0.101D-05 0.208D-05-0.176D-05 0.142D-05-0.479D-04-0.119D-03
 Coeff-Com: -0.448D-03-0.943D-03-0.134D-02 0.612D-02 0.353D-01 0.147D+00
 Coeff-Com:  0.298D+00 0.516D+00
 Coeff:     -0.101D-05 0.208D-05-0.176D-05 0.142D-05-0.479D-04-0.119D-03
 Coeff:     -0.448D-03-0.943D-03-0.134D-02 0.612D-02 0.353D-01 0.147D+00
 Coeff:      0.298D+00 0.516D+00
 Gap=     0.187 Goal=   None    Shift=    0.000
 RMSDP=4.10D-08 MaxDP=6.86D-06 DE=-5.09D-11 OVMax= 6.66D-07

 Cycle  15  Pass 1  IDiag  1:
 RMSU=  7.63D-09    CP:  8.99D-01  3.67D-01  8.81D-01  6.06D-01  6.82D-01
                    CP:  6.56D-01  8.22D-01  7.16D-01  7.41D-01  8.55D-01
                    CP:  8.55D-01  7.80D-01  6.32D-01  7.56D-01
 E= -3204.70631782617     Delta-E=       -0.000000000009 Rises=F Damp=F
 DIIS: error= 2.55D-08 at cycle  15 NSaved=  15.
 NSaved=15 IEnMin=15 EnMin= -3204.70631782617     IErMin=15 ErrMin= 2.55D-08
 ErrMax= 2.55D-08 EMaxC= 1.00D-01 BMatC= 1.97D-13 BMatP= 1.50D-12
 IDIUse=1 WtCom= 1.00D+00 WtEn= 0.00D+00
 Coeff-Com: -0.109D-06 0.223D-06-0.217D-06 0.524D-06-0.568D-05-0.183D-04
 Coeff-Com: -0.816D-04-0.218D-03-0.600D-03-0.114D-02 0.330D-03 0.246D-01
 Coeff-Com:  0.735D-01 0.291D+00 0.612D+00
 Coeff:     -0.109D-06 0.223D-06-0.217D-06 0.524D-06-0.568D-05-0.183D-04
 Coeff:     -0.816D-04-0.218D-03-0.600D-03-0.114D-02 0.330D-03 0.246D-01
 Coeff:      0.735D-01 0.291D+00 0.612D+00
 Gap=     0.187 Goal=   None    Shift=    0.000
 RMSDP=1.51D-08 MaxDP=2.11D-06 DE=-9.09D-12 OVMax= 1.68D-07

 Cycle  16  Pass 1  IDiag  1:
 RMSU=  2.66D-09    CP:  8.99D-01  3.67D-01  8.81D-01  6.06D-01  6.82D-01
                    CP:  6.56D-01  8.22D-01  7.16D-01  7.41D-01  8.55D-01
                    CP:  8.59D-01  7.90D-01  6.40D-01  7.53D-01  7.02D-01
 E= -3204.70631782626     Delta-E=       -0.000000000097 Rises=F Damp=F
 DIIS: error= 7.23D-09 at cycle  16 NSaved=  16.
 NSaved=16 IEnMin=16 EnMin= -3204.70631782626     IErMin=16 ErrMin= 7.23D-09
 ErrMax= 7.23D-09 EMaxC= 1.00D-01 BMatC= 2.15D-14 BMatP= 1.97D-13
 IDIUse=1 WtCom= 1.00D+00 WtEn= 0.00D+00
 Coeff-Com:  0.832D-08-0.107D-07 0.159D-06 0.123D-06 0.822D-06-0.380D-06
 Coeff-Com: -0.791D-05-0.468D-04-0.235D-03-0.131D-02-0.349D-02-0.271D-02
 Coeff-Com:  0.795D-02 0.106D+00 0.329D+00 0.564D+00
 Coeff:      0.832D-08-0.107D-07 0.159D-06 0.123D-06 0.822D-06-0.380D-06
 Coeff:     -0.791D-05-0.468D-04-0.235D-03-0.131D-02-0.349D-02-0.271D-02
 Coeff:      0.795D-02 0.106D+00 0.329D+00 0.564D+00
 Gap=     0.187 Goal=   None    Shift=    0.000
 RMSDP=4.52D-09 MaxDP=6.97D-07 DE=-9.73D-11 OVMax= 3.02D-08

 SCF Done:  E(RB3LYP) =  -3204.70631783     A.U. after   16 cycles
             Convg  =    0.4523D-08             -V/T =  2.0016
 KE= 3.199649690426D+03 PE=-1.011033477072D+04 EE= 2.461940647793D+03
 Leave Link  502 at Fri Jul 05 22:22:41 2019, MaxMem=  209715200 cpu:     450.0
 (Enter C:\G09W\l601.exe)
 Copying SCF densities to generalized density rwf, IOpCl= 0 IROHF=0.

 **********************************************************************

            Population analysis using the SCF density.

 **********************************************************************

 Orbital symmetries:
       Occupied  (A) (A) (A) (A) (A) (A) (A) (A) (A) (A) (A) (A)
                 (A) (A) (A) (A) (A) (A) (A) (A) (A) (A) (A) (A)
                 (A) (A) (A) (A) (A) (A) (A) (A) (A) (A) (A) (A)
                 (A) (A) (A) (A) (A) (A) (A) (A) (A) (A) (A) (A)
                 (A) (A) (A) (A) (A) (A) (A) (A) (A) (A) (A) (A)
                 (A) (A) (A) (A) (A) (A) (A)
       Virtual   (A) (A) (A) (A) (A) (A) (A) (A) (A) (A) (A) (A)
                 (A) (A) (A) (A) (A) (A) (A) (A) (A) (A) (A) (A)
                 (A) (A) (A) (A) (A) (A) (A) (A) (A) (A) (A) (A)
                 (A) (A) (A) (A) (A) (A) (A) (A) (A) (A) (A) (A)
                 (A) (A) (A) (A) (A) (A) (A) (A) (A) (A) (A) (A)
                 (A) (A) (A) (A) (A) (A) (A) (A) (A) (A) (A) (A)
                 (A) (A) (A) (A) (A) (A) (A) (A) (A) (A) (A) (A)
                 (A) (A) (A) (A) (A) (A) (A) (A) (A) (A) (A) (A)
                 (A) (A) (A) (A) (A) (A) (A) (A) (A) (A) (A) (A)
                 (A) (A) (A) (A) (A) (A) (A) (A) (A) (A) (A) (A)
                 (A) (A) (A) (A) (A) (A) (A) (A) (A) (A) (A) (A)
                 (A) (A) (A) (A) (A) (A) (A) (A) (A) (A) (A) (A)
                 (A) (A) (A) (A) (A) (A) (A) (A) (A) (A) (A) (A)
                 (A) (A) (A) (A) (A) (A) (A) (A) (A) (A) (A) (A)
                 (A) (A) (A) (A) (A) (A) (A) (A) (A) (A) (A) (A)
                 (A) (A) (A) (A) (A) (A) (A) (A) (A) (A) (A) (A)
                 (A) (A) (A) (A) (A) (A) (A) (A) (A) (A) (A) (A)
                 (A) (A) (A) (A) (A) (A) (A) (A) (A) (A) (A) (A)
                 (A) (A) (A) (A) (A) (A) (A) (A) (A) (A) (A) (A)
                 (A) (A) (A) (A) (A) (A) (A) (A) (A) (A) (A) (A)
                 (A) (A) (A) (A) (A) (A) (A) (A) (A) (A) (A) (A)
                 (A) (A) (A) (A) (A) (A) (A) (A) (A) (A) (A) (A)
                 (A) (A) (A) (A) (A) (A) (A) (A) (A) (A) (A) (A)
                 (A) (A) (A) (A) (A) (A) (A) (A) (A) (A) (A) (A)
                 (A) (A) (A) (A) (A) (A) (A) (A) (A) (A) (A) (A)
                 (A) (A) (A) (A) (A) (A) (A) (A) (A) (A) (A) (A)
                 (A) (A) (A) (A) (A) (A) (A) (A) (A) (A) (A) (A)
                 (A) (A) (A) (A) (A) (A) (A) (A) (A) (A) (A) (A)
                 (A) (A) (A) (A) (A) (A) (A) (A) (A) (A) (A) (A)
                 (A) (A) (A) (A) (A) (A) (A) (A) (A) (A)
 The electronic state is 1-A.
 Alpha  occ. eigenvalues -- -482.83982 -62.49254 -56.31293 -56.30897 -56.30896
 Alpha  occ. eigenvalues --  -19.16691 -19.09696 -14.36972 -10.29330 -10.25593
 Alpha  occ. eigenvalues --  -10.25318 -10.23992 -10.21760 -10.21096 -10.20276
 Alpha  occ. eigenvalues --  -10.20261 -10.19865 -10.19860 -10.18726  -8.70236
 Alpha  occ. eigenvalues --   -6.53392  -6.52069  -6.52056  -2.64491  -2.64100
 Alpha  occ. eigenvalues --   -2.64086  -2.63039  -2.63039  -1.12321  -1.03765
 Alpha  occ. eigenvalues --   -0.99171  -0.89348  -0.84929  -0.80312  -0.78250
 Alpha  occ. eigenvalues --   -0.77836  -0.73973  -0.71550  -0.64674  -0.63816
 Alpha  occ. eigenvalues --   -0.61801  -0.59216  -0.54964  -0.53665  -0.52325
 Alpha  occ. eigenvalues --   -0.50752  -0.50520  -0.49058  -0.46141  -0.45520
 Alpha  occ. eigenvalues --   -0.44846  -0.43488  -0.42228  -0.41920  -0.40489
 Alpha  occ. eigenvalues --   -0.39156  -0.38974  -0.38645  -0.37867  -0.37107
 Alpha  occ. eigenvalues --   -0.31883  -0.30492  -0.30353  -0.28795  -0.27988
 Alpha  occ. eigenvalues --   -0.27688  -0.23333
 Alpha virt. eigenvalues --   -0.04603  -0.04302  -0.02496  -0.02257  -0.01318
 Alpha virt. eigenvalues --   -0.00849  -0.00424   0.00992   0.01232   0.01988
 Alpha virt. eigenvalues --    0.02060   0.02415   0.03881   0.04052   0.04784
 Alpha virt. eigenvalues --    0.05193   0.05822   0.06083   0.06570   0.06993
 Alpha virt. eigenvalues --    0.07392   0.07988   0.08234   0.08485   0.08713
 Alpha virt. eigenvalues --    0.09481   0.09911   0.10146   0.10506   0.10726
 Alpha virt. eigenvalues --    0.10989   0.11131   0.11253   0.11895   0.12002
 Alpha virt. eigenvalues --    0.12783   0.12820   0.13304   0.13804   0.14081
 Alpha virt. eigenvalues --    0.14169   0.14354   0.14926   0.15370   0.15442
 Alpha virt. eigenvalues --    0.15739   0.16045   0.16580   0.16914   0.17431
 Alpha virt. eigenvalues --    0.17870   0.18779   0.18960   0.19332   0.19608
 Alpha virt. eigenvalues --    0.20331   0.21059   0.21548   0.21845   0.22423
 Alpha virt. eigenvalues --    0.22749   0.23192   0.23505   0.23686   0.24435
 Alpha virt. eigenvalues --    0.24894   0.25167   0.25610   0.26227   0.26365
 Alpha virt. eigenvalues --    0.26916   0.27337   0.28816   0.29221   0.29953
 Alpha virt. eigenvalues --    0.30072   0.30337   0.30795   0.31156   0.31560
 Alpha virt. eigenvalues --    0.32312   0.32398   0.32900   0.33370   0.33746
 Alpha virt. eigenvalues --    0.34700   0.35084   0.35956   0.36352   0.36731
 Alpha virt. eigenvalues --    0.37564   0.37951   0.40383   0.41661   0.41997
 Alpha virt. eigenvalues --    0.43080   0.43469   0.44658   0.45292   0.47099
 Alpha virt. eigenvalues --    0.48740   0.49473   0.50076   0.51527   0.51825
 Alpha virt. eigenvalues --    0.53415   0.53820   0.55027   0.55380   0.56456
 Alpha virt. eigenvalues --    0.56688   0.57315   0.57609   0.58501   0.59192
 Alpha virt. eigenvalues --    0.59540   0.60422   0.61210   0.62082   0.63236
 Alpha virt. eigenvalues --    0.63642   0.64458   0.65419   0.66209   0.66494
 Alpha virt. eigenvalues --    0.66778   0.67688   0.68525   0.69101   0.69878
 Alpha virt. eigenvalues --    0.70015   0.72431   0.73954   0.74234   0.74813
 Alpha virt. eigenvalues --    0.75700   0.75853   0.76620   0.78454   0.78808
 Alpha virt. eigenvalues --    0.79493   0.81916   0.83048   0.83921   0.84125
 Alpha virt. eigenvalues --    0.85816   0.86791   0.87940   0.88896   0.89749
 Alpha virt. eigenvalues --    0.90182   0.90987   0.92880   0.93894   0.95689
 Alpha virt. eigenvalues --    0.96308   0.97719   0.98300   0.99320   1.00262
 Alpha virt. eigenvalues --    1.01513   1.03941   1.04387   1.05168   1.05646
 Alpha virt. eigenvalues --    1.06820   1.07270   1.10258   1.10774   1.12946
 Alpha virt. eigenvalues --    1.14667   1.17886   1.20288   1.21729   1.22618
 Alpha virt. eigenvalues --    1.23303   1.25558   1.27124   1.27725   1.30879
 Alpha virt. eigenvalues --    1.34251   1.34822   1.35253   1.38896   1.39428
 Alpha virt. eigenvalues --    1.41357   1.42075   1.44487   1.45344   1.45919
 Alpha virt. eigenvalues --    1.50130   1.52681   1.53139   1.53797   1.55271
 Alpha virt. eigenvalues --    1.55875   1.56850   1.58766   1.59396   1.60994
 Alpha virt. eigenvalues --    1.62679   1.63704   1.64341   1.65474   1.67820
 Alpha virt. eigenvalues --    1.69152   1.71150   1.71784   1.72909   1.75478
 Alpha virt. eigenvalues --    1.76484   1.77140   1.78024   1.80735   1.81603
 Alpha virt. eigenvalues --    1.81755   1.82533   1.86456   1.87411   1.88616
 Alpha virt. eigenvalues --    1.90264   1.90884   1.92606   1.93783   1.95829
 Alpha virt. eigenvalues --    1.96731   1.97594   2.01354   2.01722   2.03697
 Alpha virt. eigenvalues --    2.04566   2.05136   2.06554   2.07517   2.11185
 Alpha virt. eigenvalues --    2.12439   2.14454   2.16048   2.16354   2.18134
 Alpha virt. eigenvalues --    2.20052   2.20851   2.24314   2.24937   2.28357
 Alpha virt. eigenvalues --    2.32002   2.37125   2.39988   2.42998   2.44089
 Alpha virt. eigenvalues --    2.45021   2.45958   2.47197   2.52459   2.53257
 Alpha virt. eigenvalues --    2.53847   2.54704   2.56645   2.57437   2.60348
 Alpha virt. eigenvalues --    2.61509   2.63163   2.63786   2.64628   2.69043
 Alpha virt. eigenvalues --    2.70047   2.71379   2.72541   2.75000   2.76043
 Alpha virt. eigenvalues --    2.76186   2.79898   2.81730   2.82813   2.83325
 Alpha virt. eigenvalues --    2.88592   2.89608   2.90411   2.91067   2.92802
 Alpha virt. eigenvalues --    2.93606   2.95477   2.97977   2.98543   2.99455
 Alpha virt. eigenvalues --    3.01628   3.03146   3.06672   3.10723   3.14921
 Alpha virt. eigenvalues --    3.14959   3.16033   3.18279   3.19291   3.20088
 Alpha virt. eigenvalues --    3.24635   3.26052   3.34461   3.40622   3.42690
 Alpha virt. eigenvalues --    3.47418   3.48513   3.49147   3.61614   3.62472
 Alpha virt. eigenvalues --    3.65886   3.69046   3.77999   3.79851   3.79892
 Alpha virt. eigenvalues --    3.83191   3.93257   3.98273   4.00577   4.02095
 Alpha virt. eigenvalues --    4.06129   4.12727   4.13468   4.14723   4.16780
 Alpha virt. eigenvalues --    4.20217   4.22980   4.31856   4.34022   4.39371
 Alpha virt. eigenvalues --    4.59877   4.83936   4.84940   5.02896   5.07539
 Alpha virt. eigenvalues --    5.10723   5.19634   5.44600   5.70809   5.91562
 Alpha virt. eigenvalues --    6.78767   7.56111   7.65619   7.77561  23.59767
 Alpha virt. eigenvalues --   23.64337  23.86434  23.92535  23.94658  23.96832
 Alpha virt. eigenvalues --   23.98503  24.07947  24.11131  24.19996  24.21320
 Alpha virt. eigenvalues --   35.66352  48.03498  49.91704  50.09257 289.75787
 Alpha virt. eigenvalues --  289.85202 289.995071020.85145
          Condensed to atoms (all electrons):
              1          2          3          4          5          6
     1  C   12.574678  -1.248700  -5.575444   1.402490  -0.897900  -0.653108
     2  C   -1.248700  13.363822  -0.739676  -1.458087  -0.691242  -1.093544
     3  C   -5.575444  -0.739676  12.232830  -1.051116  -0.869368   1.487863
     4  C    1.402490  -1.458087  -1.051116   9.392142   0.420643  -2.677317
     5  C   -0.897900  -0.691242  -0.869368   0.420643   9.533624  -0.441645
     6  C   -0.653108  -1.093544   1.487863  -2.677317  -0.441645   9.442857
     7  N   -0.130798  -0.544609  -0.136850   0.084500   0.053960   0.088637
     8  C   -0.019125  -1.095605   0.167985   0.343211  -0.381696   0.287180
     9  C   -0.024737  -0.271611   0.032780  -0.190957   0.151946  -0.161992
    10  C   -0.070447   0.692693  -0.125572  -0.119056   0.050266  -0.092314
    11  C    0.046622  -0.282540   0.036016   0.030312  -0.006432   0.025459
    12  O   -0.018741   0.045417  -0.018454  -0.001724  -0.009402  -0.002837
    13  Br  -0.009642   0.051163  -0.004069  -0.003667  -0.001213  -0.004960
    14  O    0.001623  -0.001045   0.001328   0.000047   0.000335   0.000089
    15  C    0.162989   0.109384   0.096181  -0.619163  -1.134028  -0.027898
    16  H    0.536841  -0.101942  -0.078711   0.046762   0.020831  -0.083831
    17  H   -0.066292  -0.051538   0.528593  -0.090623   0.003517   0.027709
    18  H    0.041484   0.003628  -0.097910   0.396838  -0.045704   0.006115
    19  H   -0.066598   0.042289   0.053354  -0.025554  -0.088378   0.391698
    20  H    0.000704  -0.225911  -0.010295   0.042104   0.009127   0.034764
    21  H   -0.152611   0.008213   0.157087  -0.035589   0.013540   0.017886
    22  H    0.174568  -0.043614  -0.148217   0.024603   0.028956  -0.026594
    23  H   -0.004358   0.008275   0.007754   0.014333   0.011155  -0.064937
    24  H    0.018219  -0.008225  -0.030510   0.008786  -0.059209   0.046704
    25  H   -0.014157  -0.001389   0.017048   0.042877  -0.021218  -0.046051
              7          8          9         10         11         12
     1  C   -0.130798  -0.019125  -0.024737  -0.070447   0.046622  -0.018741
     2  C   -0.544609  -1.095605  -0.271611   0.692693  -0.282540   0.045417
     3  C   -0.136850   0.167985   0.032780  -0.125572   0.036016  -0.018454
     4  C    0.084500   0.343211  -0.190957  -0.119056   0.030312  -0.001724
     5  C    0.053960  -0.381696   0.151946   0.050266  -0.006432  -0.009402
     6  C    0.088637   0.287180  -0.161992  -0.092314   0.025459  -0.002837
     7  N    7.510974   0.103301  -0.213521  -0.488829   0.219445  -0.026068
     8  C    0.103301  16.714437  -9.393952  -1.871177   1.543461   0.310592
     9  C   -0.213521  -9.393952  16.667658   1.167592  -1.426287  -0.491196
    10  C   -0.488829  -1.871177   1.167592   6.936659  -0.947227   0.273314
    11  C    0.219445   1.543461  -1.426287  -0.947227   6.223052   0.087855
    12  O   -0.026068   0.310592  -0.491196   0.273314   0.087855   8.181676
    13  Br  -0.064092  -0.183178   0.357120   0.035478  -0.135453   0.008093
    14  O    0.002511  -0.099845  -0.082916   0.046579   0.455428  -0.091587
    15  C   -0.009534  -0.090878   0.024382   0.018690  -0.001636  -0.000724
    16  H   -0.016588  -0.005117  -0.015536   0.011377  -0.001358   0.000255
    17  H   -0.024981  -0.014720  -0.011359   0.019531  -0.003369   0.000348
    18  H   -0.006058   0.010088  -0.003556  -0.001919  -0.000176   0.000209
    19  H   -0.008392   0.004899  -0.001518   0.001460  -0.000773   0.000279
    20  H    0.444908   0.244853  -0.248653  -0.079647   0.041581  -0.003890
    21  H    0.006693  -0.037714  -0.014119   0.367775   0.001644  -0.061406
    22  H    0.010628   0.014408  -0.049917   0.321504   0.020757  -0.063739
    23  H   -0.000571  -0.000643   0.000335   0.000252  -0.000040  -0.000002
    24  H    0.000288   0.000258  -0.000364  -0.000291   0.000055  -0.000010
    25  H    0.000072  -0.000905   0.000170   0.000228  -0.000011  -0.000010
             13         14         15         16         17         18
     1  C   -0.009642   0.001623   0.162989   0.536841  -0.066292   0.041484
     2  C    0.051163  -0.001045   0.109384  -0.101942  -0.051538   0.003628
     3  C   -0.004069   0.001328   0.096181  -0.078711   0.528593  -0.097910
     4  C   -0.003667   0.000047  -0.619163   0.046762  -0.090623   0.396838
     5  C   -0.001213   0.000335  -1.134028   0.020831   0.003517  -0.045704
     6  C   -0.004960   0.000089  -0.027898  -0.083831   0.027709   0.006115
     7  N   -0.064092   0.002511  -0.009534  -0.016588  -0.024981  -0.006058
     8  C   -0.183178  -0.099845  -0.090878  -0.005117  -0.014720   0.010088
     9  C    0.357120  -0.082916   0.024382  -0.015536  -0.011359  -0.003556
    10  C    0.035478   0.046579   0.018690   0.011377   0.019531  -0.001919
    11  C   -0.135453   0.455428  -0.001636  -0.001358  -0.003369  -0.000176
    12  O    0.008093  -0.091587  -0.000724   0.000255   0.000348   0.000209
    13  Br  35.041115  -0.009190   0.000043   0.001678   0.001453  -0.000007
    14  O   -0.009190   8.087981   0.000010   0.000102   0.000058  -0.000012
    15  C    0.000043   0.000010   6.931532  -0.002622   0.002836  -0.007303
    16  H    0.001678   0.000102  -0.002622   0.532009  -0.003686   0.002583
    17  H    0.001453   0.000058   0.002836  -0.003686   0.531752  -0.019835
    18  H   -0.000007  -0.000012  -0.007303   0.002583  -0.019835   0.535797
    19  H   -0.000016  -0.000018   0.010868  -0.021170   0.002271  -0.003175
    20  H    0.012237  -0.000046  -0.004227   0.001174  -0.000472  -0.000454
    21  H    0.001468   0.001430   0.001130  -0.000942  -0.002560  -0.001744
    22  H    0.000391   0.002080   0.003418  -0.001317  -0.000133   0.000404
    23  H    0.000002   0.000000   0.385826  -0.000356   0.000103  -0.000637
    24  H    0.000002   0.000000   0.365073   0.001174  -0.000218   0.003824
    25  H   -0.000003   0.000000   0.380765   0.000099   0.000533  -0.001855
             19         20         21         22         23         24
     1  C   -0.066598   0.000704  -0.152611   0.174568  -0.004358   0.018219
     2  C    0.042289  -0.225911   0.008213  -0.043614   0.008275  -0.008225
     3  C    0.053354  -0.010295   0.157087  -0.148217   0.007754  -0.030510
     4  C   -0.025554   0.042104  -0.035589   0.024603   0.014333   0.008786
     5  C   -0.088378   0.009127   0.013540   0.028956   0.011155  -0.059209
     6  C    0.391698   0.034764   0.017886  -0.026594  -0.064937   0.046704
     7  N   -0.008392   0.444908   0.006693   0.010628  -0.000571   0.000288
     8  C    0.004899   0.244853  -0.037714   0.014408  -0.000643   0.000258
     9  C   -0.001518  -0.248653  -0.014119  -0.049917   0.000335  -0.000364
    10  C    0.001460  -0.079647   0.367775   0.321504   0.000252  -0.000291
    11  C   -0.000773   0.041581   0.001644   0.020757  -0.000040   0.000055
    12  O    0.000279  -0.003890  -0.061406  -0.063739  -0.000002  -0.000010
    13  Br  -0.000016   0.012237   0.001468   0.000391   0.000002   0.000002
    14  O   -0.000018  -0.000046   0.001430   0.002080   0.000000   0.000000
    15  C    0.010868  -0.004227   0.001130   0.003418   0.385826   0.365073
    16  H   -0.021170   0.001174  -0.000942  -0.001317  -0.000356   0.001174
    17  H    0.002271  -0.000472  -0.002560  -0.000133   0.000103  -0.000218
    18  H   -0.003175  -0.000454  -0.001744   0.000404  -0.000637   0.003824
    19  H    0.548369  -0.001287   0.001025  -0.003048   0.000353  -0.000498
    20  H   -0.001287   0.414524  -0.000648   0.000763  -0.000273   0.000258
    21  H    0.001025  -0.000648   0.620665  -0.096606  -0.000029  -0.000421
    22  H   -0.003048   0.000763  -0.096606   0.626234   0.000096   0.000509
    23  H    0.000353  -0.000273  -0.000029   0.000096   0.548103  -0.022699
    24  H   -0.000498   0.000258  -0.000421   0.000509  -0.022699   0.548515
    25  H    0.000727   0.000035   0.000538  -0.000554  -0.052622  -0.021802
             25
     1  C   -0.014157
     2  C   -0.001389
     3  C    0.017048
     4  C    0.042877
     5  C   -0.021218
     6  C   -0.046051
     7  N    0.000072
     8  C   -0.000905
     9  C    0.000170
    10  C    0.000228
    11  C   -0.000011
    12  O   -0.000010
    13  Br  -0.000003
    14  O    0.000000
    15  C    0.380765
    16  H    0.000099
    17  H    0.000533
    18  H   -0.001855
    19  H    0.000727
    20  H    0.000035
    21  H    0.000538
    22  H   -0.000554
    23  H   -0.052622
    24  H   -0.021802
    25  H    0.564444
 Mulliken atomic charges:
              1
     1  C   -0.007561
     2  C   -0.465606
     3  C    0.067373
     4  C    0.023203
     5  C    0.349537
     6  C   -0.479934
     7  N    0.144977
     8  C   -0.550119
     9  C    0.200207
    10  C   -0.146919
    11  C    0.073617
    12  O   -0.118247
    13  Br  -0.094752
    14  O   -0.314942
    15  C   -0.595112
    16  H    0.178290
    17  H    0.171085
    18  H    0.189376
    19  H    0.162834
    20  H    0.328772
    21  H    0.205296
    22  H    0.204419
    23  H    0.170580
    24  H    0.150583
    25  H    0.153043
 Sum of Mulliken atomic charges =   0.00000
 Mulliken charges with hydrogens summed into heavy atoms:
              1
     1  C    0.170729
     2  C   -0.465606
     3  C    0.238458
     4  C    0.212579
     5  C    0.349537
     6  C   -0.317099
     7  N    0.473749
     8  C   -0.550119
     9  C    0.200207
    10  C    0.262796
    11  C    0.073617
    12  O   -0.118247
    13  Br  -0.094752
    14  O   -0.314942
    15  C   -0.120906
 Sum of Mulliken charges with hydrogens summed into heavy atoms =   0.00000
 Electronic spatial extent (au):  <R**2>=           5608.0656
 Charge=              0.0000 electrons
 Dipole moment (field-independent basis, Debye):
    X=             -8.5440    Y=             -2.6943    Z=              0.0182  Tot=              8.9588
 Quadrupole moment (field-independent basis, Debye-Ang):
   XX=           -107.1270   YY=           -107.2621   ZZ=            -94.4972
   XY=            -12.7573   XZ=              0.5449   YZ=              0.6134
 Traceless Quadrupole moment (field-independent basis, Debye-Ang):
   XX=             -4.1649   YY=             -4.3000   ZZ=              8.4649
   XY=            -12.7573   XZ=              0.5449   YZ=              0.6134
 Octapole moment (field-independent basis, Debye-Ang**2):
  XXX=            -60.1666  YYY=            -58.8394  ZZZ=              0.6452  XYY=             17.2007
  XXY=            -52.3664  XXZ=             -0.3258  XZZ=             21.4301  YZZ=             -6.6632
  YYZ=              0.0697  XYZ=             -0.7996
 Hexadecapole moment (field-independent basis, Debye-Ang**3):
 XXXX=          -5565.8141 YYYY=           -955.0903 ZZZZ=           -345.9054 XXXY=           -298.9007
 XXXZ=             12.9115 YYYX=           -198.6227 YYYZ=             -0.7004 ZZZX=             -1.6341
 ZZZY=              1.6608 XXYY=          -1213.2957 XXZZ=           -964.0666 YYZZ=           -214.5668
 XXYZ=              7.4124 YYXZ=              6.0979 ZZXY=            -29.0126
 N-N= 1.244038114672D+03 E-N=-1.011033477203D+04  KE= 3.199649690426D+03
 No NMR shielding tensors so no spin-rotation constants.
 Leave Link  601 at Fri Jul 05 22:22:42 2019, MaxMem=  209715200 cpu:       1.0
 (Enter C:\G09W\l607.exe)
 ******************************Gaussian NBO Version 3.1******************************
             N A T U R A L   A T O M I C   O R B I T A L   A N D
          N A T U R A L   B O N D   O R B I T A L   A N A L Y S I S
 ******************************Gaussian NBO Version 3.1******************************
       /RESON  / : Allow strongly delocalized NBO set

 Analyzing the SCF density

 Job title: 8e.log                                                          

 Storage needed:    546754 in NPA,    727855 in NBO ( 209713297 available)


 NATURAL POPULATIONS:  Natural atomic orbital occupancies 
                                                          
   NAO  Atom  No  lang   Type(AO)    Occupancy      Energy
 ----------------------------------------------------------
     1    C    1  S      Cor( 1S)     1.99903     -10.05009
     2    C    1  S      Val( 2S)     0.94284      -0.17409
     3    C    1  S      Ryd( 4S)     0.00143       0.92345
     4    C    1  S      Ryd( 3S)     0.00012       0.64431
     5    C    1  S      Ryd( 5S)     0.00001      23.04095
     6    C    1  px     Val( 2p)     1.09653      -0.07429
     7    C    1  px     Ryd( 4p)     0.00423       1.01600
     8    C    1  px     Ryd( 3p)     0.00025       0.45742
     9    C    1  px     Ryd( 5p)     0.00013       3.02164
    10    C    1  py     Val( 2p)     0.98571      -0.13390
    11    C    1  py     Ryd( 4p)     0.00124       0.55065
    12    C    1  py     Ryd( 3p)     0.00040       0.36127
    13    C    1  py     Ryd( 5p)     0.00003       2.69974
    14    C    1  pz     Val( 2p)     1.14855      -0.07624
    15    C    1  pz     Ryd( 4p)     0.00563       1.07730
    16    C    1  pz     Ryd( 3p)     0.00017       0.47102
    17    C    1  pz     Ryd( 5p)     0.00009       3.03371
    18    C    1  dxy    Ryd( 3d)     0.00049       1.69004
    19    C    1  dxz    Ryd( 3d)     0.00079       2.52188
    20    C    1  dyz    Ryd( 3d)     0.00049       1.66438
    21    C    1  dx2y2  Ryd( 3d)     0.00045       2.20233
    22    C    1  dz2    Ryd( 3d)     0.00062       2.42308

    23    C    2  S      Cor( 1S)     1.99889     -10.09744
    24    C    2  S      Val( 2S)     0.83363      -0.14200
    25    C    2  S      Ryd( 3S)     0.00121       0.90031
    26    C    2  S      Ryd( 4S)     0.00009       1.04664
    27    C    2  S      Ryd( 5S)     0.00001      22.70954
    28    C    2  px     Val( 2p)     0.87452      -0.05086
    29    C    2  px     Ryd( 4p)     0.00636       1.32429
    30    C    2  px     Ryd( 3p)     0.00009       0.83638
    31    C    2  px     Ryd( 5p)     0.00011       2.93736
    32    C    2  py     Val( 2p)     1.05978      -0.14313
    33    C    2  py     Ryd( 4p)     0.00401       0.65798
    34    C    2  py     Ryd( 3p)     0.00013       0.61796
    35    C    2  py     Ryd( 5p)     0.00003       2.63262
    36    C    2  pz     Val( 2p)     1.09945      -0.08806
    37    C    2  pz     Ryd( 4p)     0.00323       1.04362
    38    C    2  pz     Ryd( 3p)     0.00026       0.66269
    39    C    2  pz     Ryd( 5p)     0.00021       2.89827
    40    C    2  dxy    Ryd( 3d)     0.00056       1.80013
    41    C    2  dxz    Ryd( 3d)     0.00151       2.59994
    42    C    2  dyz    Ryd( 3d)     0.00063       1.66151
    43    C    2  dx2y2  Ryd( 3d)     0.00079       2.16682
    44    C    2  dz2    Ryd( 3d)     0.00081       2.42902

    45    C    3  S      Cor( 1S)     1.99903     -10.05032
    46    C    3  S      Val( 2S)     0.94295      -0.17422
    47    C    3  S      Ryd( 4S)     0.00143       0.92900
    48    C    3  S      Ryd( 3S)     0.00011       0.60791
    49    C    3  S      Ryd( 5S)     0.00001      23.06918
    50    C    3  px     Val( 2p)     1.09709      -0.07429
    51    C    3  px     Ryd( 4p)     0.00420       1.02633
    52    C    3  px     Ryd( 3p)     0.00025       0.46785
    53    C    3  px     Ryd( 5p)     0.00013       3.01501
    54    C    3  py     Val( 2p)     0.98817      -0.13405
    55    C    3  py     Ryd( 4p)     0.00127       0.55864
    56    C    3  py     Ryd( 3p)     0.00041       0.36520
    57    C    3  py     Ryd( 5p)     0.00002       2.69360
    58    C    3  pz     Val( 2p)     1.14565      -0.07601
    59    C    3  pz     Ryd( 4p)     0.00552       1.08093
    60    C    3  pz     Ryd( 3p)     0.00017       0.46900
    61    C    3  pz     Ryd( 5p)     0.00009       3.01873
    62    C    3  dxy    Ryd( 3d)     0.00053       1.69254
    63    C    3  dxz    Ryd( 3d)     0.00078       2.51939
    64    C    3  dyz    Ryd( 3d)     0.00049       1.66201
    65    C    3  dx2y2  Ryd( 3d)     0.00044       2.21068
    66    C    3  dz2    Ryd( 3d)     0.00062       2.42155

    67    C    4  S      Cor( 1S)     1.99904     -10.04655
    68    C    4  S      Val( 2S)     0.93476      -0.16800
    69    C    4  S      Ryd( 4S)     0.00132       0.94547
    70    C    4  S      Ryd( 3S)     0.00013       0.81242
    71    C    4  S      Ryd( 5S)     0.00001      22.80025
    72    C    4  px     Val( 2p)     1.08931      -0.07044
    73    C    4  px     Ryd( 4p)     0.00456       0.92976
    74    C    4  px     Ryd( 3p)     0.00025       0.45344
    75    C    4  px     Ryd( 5p)     0.00013       3.12668
    76    C    4  py     Val( 2p)     0.99982      -0.13089
    77    C    4  py     Ryd( 4p)     0.00092       0.51502
    78    C    4  py     Ryd( 3p)     0.00037       0.28391
    79    C    4  py     Ryd( 5p)     0.00001       2.71065
    80    C    4  pz     Val( 2p)     1.15231      -0.07290
    81    C    4  pz     Ryd( 4p)     0.00590       1.03752
    82    C    4  pz     Ryd( 3p)     0.00019       0.44592
    83    C    4  pz     Ryd( 5p)     0.00007       3.08550
    84    C    4  dxy    Ryd( 3d)     0.00048       1.69467
    85    C    4  dxz    Ryd( 3d)     0.00075       2.49576
    86    C    4  dyz    Ryd( 3d)     0.00043       1.64429
    87    C    4  dx2y2  Ryd( 3d)     0.00046       2.20423
    88    C    4  dz2    Ryd( 3d)     0.00065       2.40415

    89    C    5  S      Cor( 1S)     1.99904     -10.06324
    90    C    5  S      Val( 2S)     0.88940      -0.15895
    91    C    5  S      Ryd( 4S)     0.00062       0.79738
    92    C    5  S      Ryd( 3S)     0.00011       0.59858
    93    C    5  S      Ryd( 5S)     0.00001      23.21304
    94    C    5  px     Val( 2p)     1.05905      -0.07656
    95    C    5  px     Ryd( 4p)     0.00604       1.28010
    96    C    5  px     Ryd( 3p)     0.00020       1.00476
    97    C    5  px     Ryd( 5p)     0.00007       2.81397
    98    C    5  py     Val( 2p)     0.96796      -0.12207
    99    C    5  py     Ryd( 3p)     0.00128       0.59628
   100    C    5  py     Ryd( 4p)     0.00029       0.81397
   101    C    5  py     Ryd( 5p)     0.00002       2.22399
   102    C    5  pz     Val( 2p)     1.08256      -0.06936
   103    C    5  pz     Ryd( 4p)     0.00322       0.91000
   104    C    5  pz     Ryd( 3p)     0.00040       0.88897
   105    C    5  pz     Ryd( 5p)     0.00011       2.77266
   106    C    5  dxy    Ryd( 3d)     0.00069       1.68907
   107    C    5  dxz    Ryd( 3d)     0.00088       2.60072
   108    C    5  dyz    Ryd( 3d)     0.00052       1.68118
   109    C    5  dx2y2  Ryd( 3d)     0.00047       2.13330
   110    C    5  dz2    Ryd( 3d)     0.00057       2.39540

   111    C    6  S      Cor( 1S)     1.99904     -10.04645
   112    C    6  S      Val( 2S)     0.93538      -0.16766
   113    C    6  S      Ryd( 4S)     0.00117       0.97422
   114    C    6  S      Ryd( 3S)     0.00011       0.86553
   115    C    6  S      Ryd( 5S)     0.00001      22.70964
   116    C    6  px     Val( 2p)     1.08735      -0.07015
   117    C    6  px     Ryd( 4p)     0.00451       0.91930
   118    C    6  px     Ryd( 3p)     0.00024       0.42745
   119    C    6  px     Ryd( 5p)     0.00013       3.10189
   120    C    6  py     Val( 2p)     1.00478      -0.13079
   121    C    6  py     Ryd( 4p)     0.00104       0.51904
   122    C    6  py     Ryd( 3p)     0.00036       0.28277
   123    C    6  py     Ryd( 5p)     0.00001       2.70905
   124    C    6  pz     Val( 2p)     1.15116      -0.07202
   125    C    6  pz     Ryd( 4p)     0.00586       1.03181
   126    C    6  pz     Ryd( 3p)     0.00020       0.44045
   127    C    6  pz     Ryd( 5p)     0.00007       3.09650
   128    C    6  dxy    Ryd( 3d)     0.00047       1.69174
   129    C    6  dxz    Ryd( 3d)     0.00076       2.50468
   130    C    6  dyz    Ryd( 3d)     0.00045       1.64323
   131    C    6  dx2y2  Ryd( 3d)     0.00047       2.19500
   132    C    6  dz2    Ryd( 3d)     0.00066       2.40791

   133    N    7  S      Cor( 1S)     1.99924     -14.18957
   134    N    7  S      Val( 2S)     1.20013      -0.53451
   135    N    7  S      Ryd( 4S)     0.00060       1.31774
   136    N    7  S      Ryd( 3S)     0.00010       1.07684
   137    N    7  S      Ryd( 5S)     0.00000      35.34705
   138    N    7  px     Val( 2p)     1.28724      -0.25453
   139    N    7  px     Ryd( 4p)     0.00299       0.93353
   140    N    7  px     Ryd( 3p)     0.00107       0.75126
   141    N    7  px     Ryd( 5p)     0.00006       4.00247
   142    N    7  py     Val( 2p)     1.37019      -0.26564
   143    N    7  py     Ryd( 4p)     0.00286       0.69826
   144    N    7  py     Ryd( 3p)     0.00089       0.49980
   145    N    7  py     Ryd( 5p)     0.00009       4.05394
   146    N    7  pz     Val( 2p)     1.72562      -0.28058
   147    N    7  pz     Ryd( 3p)     0.01037       0.52704
   148    N    7  pz     Ryd( 4p)     0.00088       0.53172
[...]
   164. RY*(  12) C   6                  0.00003     3.94340   
   165. RY*(  13) C   6                  0.00001     1.05615   
   166. RY*(  14) C   6                  0.00001     2.29980   
   167. RY*(  15) C   6                  0.00000    19.97827   
   168. RY*(  16) C   6                  0.00001     0.81747   
   169. RY*(  17) C   6                  0.00000     2.62644   
   170. RY*(   1) N   7                  0.00730     0.73056   
   171. RY*(   2) N   7                  0.00419     0.82182   
   172. RY*(   3) N   7                  0.00191     0.63020   
   173. RY*(   4) N   7                  0.00104     0.82216   
   174. RY*(   5) N   7                  0.00074     1.34189   
   175. RY*(   6) N   7                  0.00055     1.35480   
   176. RY*(   7) N   7                  0.00033     1.75304   
   177. RY*(   8) N   7                  0.00023     1.29972   
   178. RY*(   9) N   7                  0.00011     2.24948   
   179. RY*(  10) N   7                  0.00006     2.04309   
   180. RY*(  11) N   7                  0.00005     2.14283   
   181. RY*(  12) N   7                  0.00003     3.28053   
   182. RY*(  13) N   7                  0.00001     2.54724   
   183. RY*(  14) N   7                  0.00000     3.95787   
   184. RY*(  15) N   7                  0.00001     2.49482   
   185. RY*(  16) N   7                  0.00000    35.24107   
   186. RY*(  17) N   7                  0.00000     3.85447   
   187. RY*(   1) C   8                  0.00643     1.13264   
   188. RY*(   2) C   8                  0.00377     1.31563   
   189. RY*(   3) C   8                  0.00305     1.28737   
   190. RY*(   4) C   8                  0.00127     0.87957   
   191. RY*(   5) C   8                  0.00079     1.05130   
   192. RY*(   6) C   8                  0.00044     1.75535   
   193. RY*(   7) C   8                  0.00033     1.54449   
   194. RY*(   8) C   8                  0.00023     1.23151   
   195. RY*(   9) C   8                  0.00023     2.60782   
   196. RY*(  10) C   8                  0.00017     3.06550   
   197. RY*(  11) C   8                  0.00010     3.57544   
   198. RY*(  12) C   8                  0.00008     1.49495   
   199. RY*(  13) C   8                  0.00006     2.60689   
   200. RY*(  14) C   8                  0.00004     2.93192   
   201. RY*(  15) C   8                  0.00001    17.33587   
   202. RY*(  16) C   8                  0.00001     2.70282   
   203. RY*(  17) C   8                  0.00001     1.41655   
   204. RY*(   1) C   9                  0.00652     0.81680   
   205. RY*(   2) C   9                  0.00378     1.13644   
   206. RY*(   3) C   9                  0.00195     1.00571   
   207. RY*(   4) C   9                  0.00093     1.17587   
   208. RY*(   5) C   9                  0.00066     1.52538   
   209. RY*(   6) C   9                  0.00059     1.12597   
   210. RY*(   7) C   9                  0.00040     1.27594   
   211. RY*(   8) C   9                  0.00031     1.82412   
   212. RY*(   9) C   9                  0.00017     2.83564   
   213. RY*(  10) C   9                  0.00013     0.86759   
   214. RY*(  11) C   9                  0.00005     2.37801   
   215. RY*(  12) C   9                  0.00005     1.04828   
   216. RY*(  13) C   9                  0.00002     1.59261   
   217. RY*(  14) C   9                  0.00001     2.62274   
   218. RY*(  15) C   9                  0.00002     4.50778   
   219. RY*(  16) C   9                  0.00000    19.49245   
   220. RY*(  17) C   9                  0.00000     2.70276   
   221. RY*(   1) C  10                  0.00431     0.99023   
   222. RY*(   2) C  10                  0.00197     0.83192   
   223. RY*(   3) C  10                  0.00192     1.73373   
   224. RY*(   4) C  10                  0.00078     1.45621   
   225. RY*(   5) C  10                  0.00057     1.11392   
   226. RY*(   6) C  10                  0.00045     1.69771   
   227. RY*(   7) C  10                  0.00031     0.77314   
   228. RY*(   8) C  10                  0.00017     1.70175   
   229. RY*(   9) C  10                  0.00013     2.27536   
   230. RY*(  10) C  10                  0.00008     0.67973   
   231. RY*(  11) C  10                  0.00006     2.09485   
   232. RY*(  12) C  10                  0.00004     1.31393   
   233. RY*(  13) C  10                  0.00002     0.99730   
   234. RY*(  14) C  10                  0.00003     2.81876   
   235. RY*(  15) C  10                  0.00000    22.15843   
   236. RY*(  16) C  10                  0.00000     3.11558   
   237. RY*(  17) C  10                  0.00001     1.60930   
   238. RY*(   1) C  11                  0.01517     1.12837   
   239. RY*(   2) C  11                  0.01169     1.60472   
   240. RY*(   3) C  11                  0.00695     1.60749   
   241. RY*(   4) C  11                  0.00383     1.74659   
   242. RY*(   5) C  11                  0.00231     1.68373   
   243. RY*(   6) C  11                  0.00166     1.37596   
   244. RY*(   7) C  11                  0.00072     1.62417   
   245. RY*(   8) C  11                  0.00039     0.70722   
   246. RY*(   9) C  11                  0.00015     2.73299   
   247. RY*(  10) C  11                  0.00009     2.59024   
   248. RY*(  11) C  11                  0.00003     2.28782   
   249. RY*(  12) C  11                  0.00001     2.65804   
   250. RY*(  13) C  11                  0.00001     2.09392   
   251. RY*(  14) C  11                  0.00001     0.76287   
   252. RY*(  15) C  11                  0.00001     1.33042   
   253. RY*(  16) C  11                  0.00001    19.89200   
   254. RY*(  17) C  11                  0.00000     0.54118   
   255. RY*(   1) O  12                  0.00385     0.46622   
   256. RY*(   2) O  12                  0.00211     0.92530   
   257. RY*(   3) O  12                  0.00144     1.00166   
   258. RY*(   4) O  12                  0.00071     1.09398   
   259. RY*(   5) O  12                  0.00054     1.26408   
   260. RY*(   6) O  12                  0.00019     1.33501   
   261. RY*(   7) O  12                  0.00014     2.83800   
   262. RY*(   8) O  12                  0.00006     1.60480   
   263. RY*(   9) O  12                  0.00005     1.64074   
   264. RY*(  10) O  12                  0.00004     3.57611   
   265. RY*(  11) O  12                  0.00001     2.11403   
   266. RY*(  12) O  12                  0.00002     2.91020   
   267. RY*(  13) O  12                  0.00001     4.58116   
   268. RY*(  14) O  12                  0.00001     4.52160   
   269. RY*(  15) O  12                  0.00000    49.46249   
   270. RY*(  16) O  12                  0.00000     4.88035   
   271. RY*(  17) O  12                  0.00001     3.15439   
   272. RY*(   1)Br  13                  0.00424     0.52179   
   273. RY*(   2)Br  13                  0.00175     0.55527   
   274. RY*(   3)Br  13                  0.00091     0.54877   
   275. RY*(   4)Br  13                  0.00035     0.58326   
   276. RY*(   5)Br  13                  0.00011     0.61087   
   277. RY*(   6)Br  13                  0.00009     0.50429   
   278. RY*(   7)Br  13                  0.00006     0.68325   
   279. RY*(   8)Br  13                  0.00005     1.68327   
   280. RY*(   9)Br  13                  0.00006     1.38283   
   281. RY*(  10)Br  13                  0.00002     0.43302   
   282. RY*(  11)Br  13                  0.00003     0.63577   
   283. RY*(  12)Br  13                  0.00001     3.09976   
   284. RY*(  13)Br  13                  0.00002     1.19496   
   285. RY*(  14)Br  13                  0.00000    10.75207   
   286. RY*(  15)Br  13                  0.00000   285.29172   
   287. RY*(  16)Br  13                  0.00000     2.39210   
   288. RY*(  17)Br  13                  0.00000    11.29427   
   289. RY*(  18)Br  13                  0.00000     2.45831   
   290. RY*(  19)Br  13                  0.00000    11.38207   
   291. RY*(  20)Br  13                  0.00000   285.37835   
   292. RY*(  21)Br  13                  0.00000   285.39229   
   293. RY*(  22)Br  13                  0.00000     4.26529   
   294. RY*(  23)Br  13                  0.00000   982.62415   
   295. RY*(  24)Br  13                  0.00000     4.10223   
   296. RY*(  25)Br  13                  0.00000    12.90394   
   297. RY*(  26)Br  13                  0.00000     4.06109   
   298. RY*(  27)Br  13                  0.00000     0.52581   
   299. RY*(  28)Br  13                  0.00000     4.26103   
   300. RY*(  29)Br  13                  0.00000    78.08108   
   301. RY*(  30)Br  13                  0.00000     4.07772   
   302. RY*(   1) O  14                  0.00272     0.84714   
   303. RY*(   2) O  14                  0.00114     0.64265   
   304. RY*(   3) O  14                  0.00092     1.11213   
   305. RY*(   4) O  14                  0.00015     1.45809   
   306. RY*(   5) O  14                  0.00009     4.82179   
   307. RY*(   6) O  14                  0.00006     1.59359   
   308. RY*(   7) O  14                  0.00003     1.50123   
   309. RY*(   8) O  14                  0.00003     1.38087   
   310. RY*(   9) O  14                  0.00001     4.23786   
   311. RY*(  10) O  14                  0.00000     3.04252   
   312. RY*(  11) O  14                  0.00001     1.97344   
   313. RY*(  12) O  14                  0.00000     4.94437   
   314. RY*(  13) O  14                  0.00001     3.28242   
   315. RY*(  14) O  14                  0.00000     3.11899   
   316. RY*(  15) O  14                  0.00000     2.28367   
   317. RY*(  16) O  14                  0.00000    49.33004   
   318. RY*(  17) O  14                  0.00000     2.95946   
   319. RY*(   1) C  15                  0.00357     0.60810   
   320. RY*(   2) C  15                  0.00086     0.96483   
   321. RY*(   3) C  15                  0.00038     0.57234   
   322. RY*(   4) C  15                  0.00018     2.42519   
   323. RY*(   5) C  15                  0.00009     1.01551   
   324. RY*(   6) C  15                  0.00005     0.99866   
   325. RY*(   7) C  15                  0.00004     1.44303   
   326. RY*(   8) C  15                  0.00001     0.78093   
   327. RY*(   9) C  15                  0.00000     2.93530   
   328. RY*(  10) C  15                  0.00000    22.93720   
   329. RY*(  11) C  15                  0.00001     0.52607   
   330. RY*(  12) C  15                  0.00000     3.00050   
   331. RY*(  13) C  15                  0.00001     1.02277   
   332. RY*(  14) C  15                  0.00000     1.86282   
   333. RY*(  15) C  15                  0.00000     1.88648   
   334. RY*(  16) C  15                  0.00000     1.82277   
   335. RY*(  17) C  15                  0.00001     1.83594   
   336. RY*(   1) H  16                  0.00168     0.50053   
   337. RY*(   2) H  16                  0.00029     2.18312   
   338. RY*(   3) H  16                  0.00021     1.74148   
   339. RY*(   4) H  16                  0.00012     1.74785   
   340. RY*(   5) H  16                  0.00005     0.77031   
   341. RY*(   6) H  16                  0.00005     2.40799   
   342. RY*(   1) H  17                  0.00090     0.81390   
   343. RY*(   2) H  17                  0.00022     1.72796   
   344. RY*(   3) H  17                  0.00019     1.89564   
   345. RY*(   4) H  17                  0.00011     1.82184   
   346. RY*(   5) H  17                  0.00004     0.83667   
   347. RY*(   6) H  17                  0.00005     2.18131   
   348. RY*(   1) H  18                  0.00080     0.77055   
   349. RY*(   2) H  18                  0.00020     2.21910   
   350. RY*(   3) H  18                  0.00019     1.58699   
   351. RY*(   4) H  18                  0.00014     1.71368   
   352. RY*(   5) H  18                  0.00006     0.48325   
   353. RY*(   6) H  18                  0.00004     2.43972   
   354. RY*(   1) H  19                  0.00085     0.78486   
   355. RY*(   2) H  19                  0.00020     2.22825   
   356. RY*(   3) H  19                  0.00018     1.58974   
   357. RY*(   4) H  19                  0.00013     1.69394   
   358. RY*(   5) H  19                  0.00004     2.34480   
   359. RY*(   6) H  19                  0.00004     0.60153   
   360. RY*(   1) H  20                  0.00170     0.75877   
   361. RY*(   2) H  20                  0.00067     1.65851   
   362. RY*(   3) H  20                  0.00042     1.68233   
   363. RY*(   4) H  20                  0.00020     1.93534   
   364. RY*(   5) H  20                  0.00009     0.93231   
   365. RY*(   6) H  20                  0.00006     2.51500   
   366. RY*(   1) H  21                  0.00124     0.60343   
   367. RY*(   2) H  21                  0.00033     1.78957   
   368. RY*(   3) H  21                  0.00014     2.30467   
   369. RY*(   4) H  21                  0.00010     2.00307   
   370. RY*(   5) H  21                  0.00010     1.12962   
   371. RY*(   6) H  21                  0.00007     1.56499   
   372. RY*(   1) H  22                  0.00117     0.62936   
   373. RY*(   2) H  22                  0.00030     1.74133   
   374. RY*(   3) H  22                  0.00015     2.13151   
   375. RY*(   4) H  22                  0.00012     2.02872   
   376. RY*(   5) H  22                  0.00009     0.75712   
   377. RY*(   6) H  22                  0.00009     2.09807   
   378. RY*(   1) H  23                  0.00093     0.62999   
   379. RY*(   2) H  23                  0.00017     1.84435   
   380. RY*(   3) H  23                  0.00013     1.76246   
   381. RY*(   4) H  23                  0.00009     1.19833   
   382. RY*(   5) H  23                  0.00006     1.74844   
   383. RY*(   6) H  23                  0.00003     1.95453   
   384. RY*(   1) H  24                  0.00089     0.66535   
   385. RY*(   2) H  24                  0.00016     1.96847   
   386. RY*(   3) H  24                  0.00011     1.36956   
   387. RY*(   4) H  24                  0.00011     1.64501   
   388. RY*(   5) H  24                  0.00005     0.89046   
   389. RY*(   6) H  24                  0.00002     2.53894   
   390. RY*(   1) H  25                  0.00092     0.62843   
   391. RY*(   2) H  25                  0.00017     1.86783   
   392. RY*(   3) H  25                  0.00013     1.74346   
   393. RY*(   4) H  25                  0.00009     1.15398   
   394. RY*(   5) H  25                  0.00006     1.58380   
   395. RY*(   6) H  25                  0.00003     2.15334   
   396. BD*(   1) C   1 - C   2          0.02625     0.54390   
   397. BD*(   2) C   1 - C   2          0.38847     0.00131  403(v),408(v),70(g),88(g)
                                                    411(v),104(v),412(v)
   398. BD*(   1) C   1 - C   6          0.01390     0.55756   
   399. BD*(   1) C   1 - H  16          0.01339     0.41684   
   400. BD*(   1) C   2 - C   3          0.02477     0.54003   
   401. BD*(   1) C   2 - N   7          0.02958     0.38037   
   402. BD*(   1) C   3 - C   4          0.01337     0.56315   
   403. BD*(   2) C   3 - C   4          0.32013     0.00882  397(v),408(v),122(g),105(g)
                                                    104(g)
   404. BD*(   1) C   3 - H  17          0.01280     0.41352   
   405. BD*(   1) C   4 - C   5          0.02434     0.55738   
   406. BD*(   1) C   4 - H  18          0.01392     0.42001   
   407. BD*(   1) C   5 - C   6          0.02348     0.56524   
   408. BD*(   2) C   5 - C   6          0.33677     0.01754  403(v),397(v),155(g),424(v)
                                                    426(v),121(v),139(g)
   409. BD*(   1) C   5 - C  15          0.01576     0.40288   
   410. BD*(   1) C   6 - H  19          0.01404     0.42158   
   411. BD*(   1) N   7 - C   8          0.02866     0.45860   
   412. BD*(   1) N   7 - H  20          0.02306     0.36166   
   413. BD*(   1) C   8 - C   9          0.02413     0.58915   
   414. BD*(   2) C   8 - C   9          0.31285    -0.00250  423(v),206(g),420(v),419(v)
                                                    193(g)
   415. BD*(   1) C   8 - C  10          0.03118     0.35670   
   416. BD*(   1) C   9 - C  11          0.07796     0.43703   
   417. BD*(   1) C   9 -Br  13          0.03104     0.08917   
   418. BD*(   1) C  10 - O  12          0.01443     0.26027   
   419. BD*(   1) C  10 - H  21          0.02231     0.36032   
   420. BD*(   1) C  10 - H  22          0.02254     0.36282   
   421. BD*(   1) C  11 - O  12          0.12134     0.31253  418(g),415(v),239(g),413(v)
                                                    244(g),417(v)
   422. BD*(   1) C  11 - O  14          0.01292     0.64137   
   423. BD*(   2) C  11 - O  14          0.28709     0.01652  414(v),240(g),303(g),245(g)
                                                    315(g)
   424. BD*(   1) C  15 - H  23          0.00898     0.38535   
   425. BD*(   1) C  15 - H  24          0.00384     0.38898   
   426. BD*(   1) C  15 - H  25          0.00811     0.38584   
       -------------------------------
              Total Lewis  131.47963  ( 98.1191%)
        Valence non-Lewis    2.30143  (  1.7175%)
        Rydberg non-Lewis    0.21894  (  0.1634%)
       -------------------------------
            Total unit  1  134.00000  (100.0000%)
           Charge unit  1    0.00000
 Leave Link  607 at Sat Jul 06 01:51:46 2019, MaxMem=  209715200 cpu:       5.0
 (Enter C:\G09W\l9999.exe)
 1|1|UNPC-CCSC-2005544|FOpt|RB3LYP|6-311++G(d,p)|C11H10Br1N1O2|EDUARDO.
 MELO|06-Jul-2019|0||#p opt b3lyp/6-311++g(d,p) pop=nbo geom=connectivi
 ty||8e.log||0,1|C,-2.3247025473,0.1609622421,0.9696116606|C,-1.7046679
 408,-0.3708284787,-0.1617412493|C,-2.497462487,-0.7947428167,-1.234307
 4917|C,-3.8803793544,-0.6771429293,-1.1730903604|C,-4.5161244307,-0.12
 00989879,-0.0561018929|C,-3.7115364046,0.2959352879,1.0070800796|N,-0.
 2965110149,-0.540352847,-0.237278718|C,0.6649933035,0.3788517066,0.026
 0094754|C,2.0045475468,0.2389105364,-0.1137577203|C,0.411227251,1.7961
 680049,0.4800505543|C,2.6856885978,1.4927303499,0.1988760809|O,1.70003
 64128,2.4072637052,0.5497937134|Br,2.8985181911,-1.3128892386,-0.69910
 1219|O,3.8470033862,1.7846157636,0.1840363461|C,-6.0188442008,0.008732
 1407,-0.0056775408|H,-1.7360096596,0.4397141052,1.8343854579|H,-2.0248
 22732,-1.2062787558,-2.119746562|H,-4.4754257238,-1.0129905871,-2.0162
 856411|H,-4.1738391936,0.7141347356,1.894967743|H,0.0337632697,-1.3853
 513686,-0.6860234308|H,-0.2144206582,2.3425518823,-0.2322076459|H,-0.0
 497411157,1.8520473586,1.4677900663|H,-6.5010138336,-0.9735200748,-0.0
 297979295|H,-6.3439276935,0.5171235016,0.9038551896|H,-6.3968879683,0.
 5764937636,-0.8609669651||Version=IA32W-G09RevA.02|State=1-A|HF=-3204.
 7110177|RMSD=3.622e-009|RMSF=2.644e-006|Dipole=-3.1756425,-0.9633984,-
 0.1959265|Quadrupole=-4.5393222,-1.5169955,6.0563177,-9.0093023,-1.608
 8053,1.9946757|PG=C01 [X(C11H10Br1N1O2)]||@


 I CLAIM NOT TO HAVE CONTROLLED EVENTS,
 BUT CONFESS PLAINLY THAT EVENTS HAVE CONTROLLED ME.

                                         A. LINCOLN
 Job cpu time:  0 days  3 hours 36 minutes 43.0 seconds.
 File lengths (MBytes):  RWF=    113 Int=      0 D2E=      0 Chk=     11 Scr=      1
 Normal termination of Gaussian 09 at Sat Jul 06 01:51:46 2019.
