 Entering Link 1 = C:\G09W\l1.exe PID=      4384.
  
 Copyright (c) 1988,1990,1992,1993,1995,1998,2003,2009, Gaussian, Inc.
                  All Rights Reserved.
  
 This is part of the Gaussian(R) 09 program.  It is based on
 the Gaussian(R) 03 system (copyright 2003, Gaussian, Inc.),
 the Gaussian(R) 98 system (copyright 1998, Gaussian, Inc.),
 the Gaussian(R) 94 system (copyright 1995, Gaussian, Inc.),
 the Gaussian 92(TM) system (copyright 1992, Gaussian, Inc.),
 the Gaussian 90(TM) system (copyright 1990, Gaussian, Inc.),
 the Gaussian 88(TM) system (copyright 1988, Gaussian, Inc.),
 the Gaussian 86(TM) system (copyright 1986, Carnegie Mellon
 University), and the Gaussian 82(TM) system (copyright 1983,
 Carnegie Mellon University). Gaussian is a federally registered
 trademark of Gaussian, Inc.
  
 This software contains proprietary and confidential information,
 including trade secrets, belonging to Gaussian, Inc.
  
 This software is provided under written license and may be
 used, copied, transmitted, or stored only in accord with that
 written license.
  
 The following legend is applicable only to US Government
 contracts under FAR:
  
                    RESTRICTED RIGHTS LEGEND
  
 Use, reproduction and disclosure by the US Government is
 subject to restrictions as set forth in subparagraphs (a)
 and (c) of the Commercial Computer Software - Restricted
 Rights clause in FAR 52.227-19.
  
 Gaussian, Inc.
 340 Quinnipiac St., Bldg. 40, Wallingford CT 06492
  
  
 ---------------------------------------------------------------
 Warning -- This program may not be used in any manner that
 competes with the business of Gaussian, Inc. or will provide
 assistance to any competitor of Gaussian, Inc.  The licensee
 of this program is prohibited from giving any competitor of
 Gaussian, Inc. access to this program.  By using this program,
 the user acknowledges that Gaussian, Inc. is engaged in the
 business of creating and licensing software in the field of
 computational chemistry and represents and warrants to the
 licensee that it is not a competitor of Gaussian, Inc. and that
 it will not use this program in any manner prohibited above.
 ---------------------------------------------------------------
  

 Cite this work as:
 Gaussian 09, Revision A.02,
 M. J. Frisch, G. W. Trucks, H. B. Schlegel, G. E. Scuseria, 
 M. A. Robb, J. R. Cheeseman, G. Scalmani, V. Barone, B. Mennucci, 
 G. A. Petersson, H. Nakatsuji, M. Caricato, X. Li, H. P. Hratchian, 
 A. F. Izmaylov, J. Bloino, G. Zheng, J. L. Sonnenberg, M. Hada, 
 M. Ehara, K. Toyota, R. Fukuda, J. Hasegawa, M. Ishida, T. Nakajima, 
 Y. Honda, O. Kitao, H. Nakai, T. Vreven, J. A. Montgomery, Jr., 
 J. E. Peralta, F. Ogliaro, M. Bearpark, J. J. Heyd, E. Brothers, 
 K. N. Kudin, V. N. Staroverov, R. Kobayashi, J. Normand, 
 K. Raghavachari, A. Rendell, J. C. Burant, S. S. Iyengar, J. Tomasi, 
 M. Cossi, N. Rega, J. M. Millam, M. Klene, J. E. Knox, J. B. Cross, 
 V. Bakken, C. Adamo, J. Jaramillo, R. Gomperts, R. E. Stratmann, 
 O. Yazyev, A. J. Austin, R. Cammi, C. Pomelli, J. W. Ochterski, 
 R. L. Martin, K. Morokuma, V. G. Zakrzewski, G. A. Voth, 
 P. Salvador, J. J. Dannenberg, S. Dapprich, A. D. Daniels, 
 O. Farkas, J. B. Foresman, J. V. Ortiz, J. Cioslowski, 
 and D. J. Fox, Gaussian, Inc., Wallingford CT, 2009.
 
 ******************************************
 Gaussian 09:  IA32W-G09RevA.02 11-Jun-2009
                05-Jul-2019 
 ******************************************
 %nprocshared=4
 Will use up to    4 processors via shared memory.
 %mem=1600MB
 ----------------------------------------------------
 #p opt b3lyp/6-311++g(d,p) pop=nbo geom=connectivity
 ----------------------------------------------------
 1/14=-1,18=20,19=15,26=3,38=1,57=2/1,3;
 2/9=110,12=2,17=6,18=5,40=1/2;
 3/5=4,6=6,7=1111,11=2,16=1,25=1,30=1,71=1,74=-5/1,2,3;
 4//1;
 5/5=2,38=5/2;
 6/7=2,8=2,9=2,10=2,28=1/1,7;
 7//1,2,3,16;
 1/14=-1,18=20,19=15/3(2);
 2/9=110/2;
 99//99;
 2/9=110/2;
 3/5=4,6=6,7=1111,11=2,16=1,25=1,30=1,71=1,74=-5/1,2,3;
 4/5=5,16=3/1;
 5/5=2,38=5/2;
 7//1,2,3,16;
 1/14=-1,18=20,19=15/3(-5);
 2/9=110/2;
 6/7=2,8=2,9=2,10=2,19=2,28=1/1,7;
 99/9=1/99;
 Leave Link    1 at Fri Jul 05 20:31:38 2019, MaxMem=  209715200 cpu:       0.0
 (Enter C:\G09W\l101.exe)
 ------
 8f.log
 ------
 Symbolic Z-matrix:
 Charge =  0 Multiplicity = 1
 C                    -2.74645   0.09105   1.16809 
 C                    -2.07819  -0.41742   0.06412 
 C                    -2.78516  -0.74391  -1.08423 
 C                    -4.15681  -0.5591   -1.12718 
 C                    -4.82292  -0.03702  -0.02991 
 C                    -4.11651   0.2897    1.11577 
 N                    -0.66972  -0.629     0.11462 
 C                     0.26044   0.336     0.00842 
 C                     1.59089   0.22917  -0.00967 
 C                    -0.07298   1.79986  -0.12975 
 C                     2.19103   1.55289  -0.15633 
 O                     1.17173   2.44142  -0.22221 
 Br                    2.58346  -1.34735   0.1125 
 O                     3.32348   1.87694  -0.21575 
 H                    -2.19475   0.31675   2.06309 
 H                    -2.25881  -1.13866  -1.93497 
 H                    -4.70173  -0.81567  -2.01783 
 H                    -5.88725   0.11123  -0.0668 
 H                    -4.63041   0.68751   1.97231 
 H                    -0.33373  -1.56655   0.12703 
 H                    -0.65465   1.99299  -1.02299 
 H                    -0.61359   2.1782    0.72807 
 
 NAtoms=     22 NQM=     22 NQMF=      0 NMic=      0 NMicF=      0 NTot=     22.
                    Isotopes and Nuclear Properties:
 (Nuclear quadrupole moments (NQMom) in fm**2, nuclear magnetic moments (NMagM)
  in nuclear magnetons)

  Atom         1           2           3           4           5           6           7           8           9          10
 IAtWgt=          12          12          12          12          12          12          14          12          12          12
 AtmWgt=  12.0000000  12.0000000  12.0000000  12.0000000  12.0000000  12.0000000  14.0030740  12.0000000  12.0000000  12.0000000
 NucSpn=           0           0           0           0           0           0           2           0           0           0
 AtZEff=   0.0000000   0.0000000   0.0000000   0.0000000   0.0000000   0.0000000   0.0000000   0.0000000   0.0000000   0.0000000
 NQMom=    0.0000000   0.0000000   0.0000000   0.0000000   0.0000000   0.0000000   2.0440000   0.0000000   0.0000000   0.0000000
 NMagM=    0.0000000   0.0000000   0.0000000   0.0000000   0.0000000   0.0000000   0.4037610   0.0000000   0.0000000   0.0000000

  Atom        11          12          13          14          15          16          17          18          19          20
 IAtWgt=          12          16          79          16           1           1           1           1           1           1
 AtmWgt=  12.0000000  15.9949146  78.9183361  15.9949146   1.0078250   1.0078250   1.0078250   1.0078250   1.0078250   1.0078250
 NucSpn=           0           0           3           0           1           1           1           1           1           1
 AtZEff=   0.0000000   0.0000000   0.0000000   0.0000000   0.0000000   0.0000000   0.0000000   0.0000000   0.0000000   0.0000000
 NQMom=    0.0000000   0.0000000  31.3000000   0.0000000   0.0000000   0.0000000   0.0000000   0.0000000   0.0000000   0.0000000
 NMagM=    0.0000000   0.0000000   2.1063990   0.0000000   2.7928460   2.7928460   2.7928460   2.7928460   2.7928460   2.7928460

  Atom        21          22
 IAtWgt=           1           1
 AtmWgt=   1.0078250   1.0078250
 NucSpn=           1           1
 AtZEff=   0.0000000   0.0000000
 NQMom=    0.0000000   0.0000000
 NMagM=    2.7928460   2.7928460
 Leave Link  101 at Fri Jul 05 20:31:38 2019, MaxMem=  209715200 cpu:       0.0
 (Enter C:\G09W\l103.exe)

 GradGradGradGradGradGradGradGradGradGradGradGradGradGradGradGradGradGrad
 Berny optimization.
 Initialization pass.
                           ----------------------------
                           !    Initial Parameters    !
                           ! (Angstroms and Degrees)  !
 --------------------------                            --------------------------
 ! Name  Definition              Value          Derivative Info.                !
 --------------------------------------------------------------------------------
 ! R1    R(1,2)                  1.387          estimate D2E/DX2                !
 ! R2    R(1,6)                  1.3854         estimate D2E/DX2                !
 ! R3    R(1,15)                 1.0753         estimate D2E/DX2                !
 ! R4    R(2,3)                  1.3875         estimate D2E/DX2                !
 ! R5    R(2,7)                  1.4252         estimate D2E/DX2                !
 ! R6    R(3,4)                  1.3847         estimate D2E/DX2                !
 ! R7    R(3,16)                 1.0755         estimate D2E/DX2                !
 ! R8    R(4,5)                  1.3857         estimate D2E/DX2                !
 ! R9    R(4,17)                 1.0752         estimate D2E/DX2                !
 ! R10   R(5,6)                  1.385          estimate D2E/DX2                !
 ! R11   R(5,18)                 1.0752         estimate D2E/DX2                !
 ! R12   R(6,19)                 1.0752         estimate D2E/DX2                !
 ! R13   R(7,8)                  1.3445         estimate D2E/DX2                !
 ! R14   R(7,20)                 0.996          estimate D2E/DX2                !
 ! R15   R(8,9)                  1.3349         estimate D2E/DX2                !
 ! R16   R(8,10)                 1.5077         estimate D2E/DX2                !
 ! R17   R(9,11)                 1.4608         estimate D2E/DX2                !
 ! R18   R(9,13)                 1.867          estimate D2E/DX2                !
 ! R19   R(10,12)                1.4034         estimate D2E/DX2                !
 ! R20   R(10,21)                1.0833         estimate D2E/DX2                !
 ! R21   R(10,22)                1.0823         estimate D2E/DX2                !
 ! R22   R(11,12)                1.3538         estimate D2E/DX2                !
 ! R23   R(11,14)                1.1794         estimate D2E/DX2                !
 ! A1    A(2,1,6)              119.9319         estimate D2E/DX2                !
 ! A2    A(2,1,15)             119.4863         estimate D2E/DX2                !
 ! A3    A(6,1,15)             120.5778         estimate D2E/DX2                !
 ! A4    A(1,2,3)              119.9683         estimate D2E/DX2                !
 ! A5    A(1,2,7)              120.1563         estimate D2E/DX2                !
 ! A6    A(3,2,7)              119.8651         estimate D2E/DX2                !
 ! A7    A(2,3,4)              119.9337         estimate D2E/DX2                !
 ! A8    A(2,3,16)             119.4525         estimate D2E/DX2                !
 ! A9    A(4,3,16)             120.6138         estimate D2E/DX2                !
 ! A10   A(3,4,5)              120.1241         estimate D2E/DX2                !
 ! A11   A(3,4,17)             119.7279         estimate D2E/DX2                !
 ! A12   A(5,4,17)             120.1465         estimate D2E/DX2                !
 ! A13   A(4,5,6)              119.9138         estimate D2E/DX2                !
 ! A14   A(4,5,18)             120.0393         estimate D2E/DX2                !
 ! A15   A(6,5,18)             120.0466         estimate D2E/DX2                !
 ! A16   A(1,6,5)              120.1191         estimate D2E/DX2                !
 ! A17   A(1,6,19)             119.7126         estimate D2E/DX2                !
 ! A18   A(5,6,19)             120.1643         estimate D2E/DX2                !
 ! A19   A(2,7,8)              125.0548         estimate D2E/DX2                !
 ! A20   A(2,7,20)             118.2658         estimate D2E/DX2                !
 ! A21   A(8,7,20)             116.3097         estimate D2E/DX2                !
 ! A22   A(7,8,9)              129.284          estimate D2E/DX2                !
 ! A23   A(7,8,10)             123.4439         estimate D2E/DX2                !
 ! A24   A(9,8,10)             107.2699         estimate D2E/DX2                !
 ! A25   A(8,9,11)             109.7744         estimate D2E/DX2                !
 ! A26   A(8,9,13)             126.6263         estimate D2E/DX2                !
 ! A27   A(11,9,13)            123.5966         estimate D2E/DX2                !
 ! A28   A(8,10,12)            104.7002         estimate D2E/DX2                !
 ! A29   A(8,10,21)            111.5559         estimate D2E/DX2                !
 ! A30   A(8,10,22)            112.1631         estimate D2E/DX2                !
 ! A31   A(12,10,21)           109.9028         estimate D2E/DX2                !
 ! A32   A(12,10,22)           109.6            estimate D2E/DX2                !
 ! A33   A(21,10,22)           108.846          estimate D2E/DX2                !
 ! A34   A(9,11,12)            106.8755         estimate D2E/DX2                !
 ! A35   A(9,11,14)            130.4297         estimate D2E/DX2                !
 ! A36   A(12,11,14)           122.6948         estimate D2E/DX2                !
 ! A37   A(10,12,11)           111.3799         estimate D2E/DX2                !
 ! D1    D(6,1,2,3)             -0.9033         estimate D2E/DX2                !
 ! D2    D(6,1,2,7)           -179.7337         estimate D2E/DX2                !
 ! D3    D(15,1,2,3)           178.371          estimate D2E/DX2                !
 ! D4    D(15,1,2,7)            -0.4594         estimate D2E/DX2                !
 ! D5    D(2,1,6,5)              0.9553         estimate D2E/DX2                !
 ! D6    D(2,1,6,19)          -179.77           estimate D2E/DX2                !
 ! D7    D(15,1,6,5)          -178.3111         estimate D2E/DX2                !
 ! D8    D(15,1,6,19)            0.9637         estimate D2E/DX2                !
 ! D9    D(1,2,3,4)              0.1253         estimate D2E/DX2                !
 ! D10   D(1,2,3,16)          -179.9279         estimate D2E/DX2                !
 ! D11   D(7,2,3,4)            178.9591         estimate D2E/DX2                !
 ! D12   D(7,2,3,16)            -1.0941         estimate D2E/DX2                !
 ! D13   D(1,2,7,8)            -77.3114         estimate D2E/DX2                !
 ! D14   D(1,2,7,20)           109.9446         estimate D2E/DX2                !
 ! D15   D(3,2,7,8)            103.857          estimate D2E/DX2                !
 ! D16   D(3,2,7,20)           -68.887          estimate D2E/DX2                !
 ! D17   D(2,3,4,5)              0.6036         estimate D2E/DX2                !
 ! D18   D(2,3,4,17)          -179.8378         estimate D2E/DX2                !
 ! D19   D(16,3,4,5)          -179.3426         estimate D2E/DX2                !
 ! D20   D(16,3,4,17)            0.2159         estimate D2E/DX2                !
 ! D21   D(3,4,5,6)             -0.5531         estimate D2E/DX2                !
 ! D22   D(3,4,5,18)           179.6465         estimate D2E/DX2                !
 ! D23   D(17,4,5,6)           179.8903         estimate D2E/DX2                !
 ! D24   D(17,4,5,18)            0.0899         estimate D2E/DX2                !
 ! D25   D(4,5,6,1)             -0.2278         estimate D2E/DX2                !
 ! D26   D(4,5,6,19)          -179.4992         estimate D2E/DX2                !
 ! D27   D(18,5,6,1)           179.5726         estimate D2E/DX2                !
 ! D28   D(18,5,6,19)            0.3011         estimate D2E/DX2                !
 ! D29   D(2,7,8,9)           -177.0259         estimate D2E/DX2                !
 ! D30   D(2,7,8,10)             2.3665         estimate D2E/DX2                !
 ! D31   D(20,7,8,9)            -4.1546         estimate D2E/DX2                !
 ! D32   D(20,7,8,10)          175.2378         estimate D2E/DX2                !
 ! D33   D(7,8,9,11)           179.3752         estimate D2E/DX2                !
 ! D34   D(7,8,9,13)            -0.0372         estimate D2E/DX2                !
 ! D35   D(10,8,9,11)           -0.0938         estimate D2E/DX2                !
 ! D36   D(10,8,9,13)         -179.5062         estimate D2E/DX2                !
 ! D37   D(7,8,10,12)         -179.4279         estimate D2E/DX2                !
 ! D38   D(7,8,10,21)          -60.6085         estimate D2E/DX2                !
 ! D39   D(7,8,10,22)           61.7993         estimate D2E/DX2                !
 ! D40   D(9,8,10,12)            0.0796         estimate D2E/DX2                !
 ! D41   D(9,8,10,21)          118.8989         estimate D2E/DX2                !
 ! D42   D(9,8,10,22)         -118.6932         estimate D2E/DX2                !
 ! D43   D(8,9,11,12)            0.0747         estimate D2E/DX2                !
 ! D44   D(8,9,11,14)         -179.8643         estimate D2E/DX2                !
 ! D45   D(13,9,11,12)         179.5085         estimate D2E/DX2                !
 ! D46   D(13,9,11,14)          -0.4304         estimate D2E/DX2                !
 ! D47   D(8,10,12,11)          -0.0337         estimate D2E/DX2                !
 ! D48   D(21,10,12,11)       -119.9646         estimate D2E/DX2                !
 ! D49   D(22,10,12,11)        120.4582         estimate D2E/DX2                !
 ! D50   D(9,11,12,10)          -0.0203         estimate D2E/DX2                !
 ! D51   D(14,11,12,10)        179.9245         estimate D2E/DX2                !
 --------------------------------------------------------------------------------
 Trust Radius=3.00D-01 FncErr=1.00D-07 GrdErr=1.00D-06
 Number of steps in this run= 121 maximum allowed number of steps= 132.
 GradGradGradGradGradGradGradGradGradGradGradGradGradGradGradGradGradGrad

 Leave Link  103 at Fri Jul 05 20:31:38 2019, MaxMem=  209715200 cpu:       0.0
 (Enter C:\G09W\l202.exe)
                          Input orientation:                          
 ---------------------------------------------------------------------
 Center     Atomic      Atomic             Coordinates (Angstroms)
 Number     Number       Type             X           Y           Z
 ---------------------------------------------------------------------
      1          6           0       -2.746445    0.091047    1.168085
      2          6           0       -2.078193   -0.417418    0.064116
      3          6           0       -2.785160   -0.743910   -1.084225
      4          6           0       -4.156809   -0.559098   -1.127180
      5          6           0       -4.822916   -0.037016   -0.029913
      6          6           0       -4.116510    0.289698    1.115769
      7          7           0       -0.669716   -0.628997    0.114618
      8          6           0        0.260435    0.336003    0.008421
      9          6           0        1.590888    0.229172   -0.009667
     10          6           0       -0.072977    1.799862   -0.129754
     11          6           0        2.191034    1.552894   -0.156325
     12          8           0        1.171733    2.441419   -0.222206
     13         35           0        2.583461   -1.347345    0.112499
     14          8           0        3.323477    1.876939   -0.215752
     15          1           0       -2.194752    0.316750    2.063086
     16          1           0       -2.258808   -1.138657   -1.934969
     17          1           0       -4.701727   -0.815670   -2.017828
     18          1           0       -5.887245    0.111229   -0.066796
     19          1           0       -4.630406    0.687510    1.972312
     20          1           0       -0.333730   -1.566554    0.127025
     21          1           0       -0.654654    1.992993   -1.022990
     22          1           0       -0.613587    2.178202    0.728074
 ---------------------------------------------------------------------
                    Distance matrix (angstroms):
                    1          2          3          4          5
     1  C    0.000000
     2  C    1.387027   0.000000
     3  C    2.402406   1.387475   0.000000
     4  C    2.771291   2.399980   1.384710   0.000000
     5  C    2.400694   2.772553   2.400775   1.385736   0.000000
     6  C    1.385380   2.400151   2.771428   2.398520   1.385041
     7  N    2.437429   1.425175   2.434242   3.702265   4.197666
     8  C    3.232051   2.457626   3.411120   4.647886   5.097163
     9  C    4.496514   3.726349   4.609920   5.908149   6.419357
    10  C    3.428099   2.995798   3.838975   4.820501   5.093723
    11  C    5.316931   4.707125   5.558670   6.760043   7.193003
    12  O    4.775906   4.337851   5.152320   6.181864   6.489640
    13  Br   5.620599   4.753748   5.533387   6.898505   7.522743
    14  O    6.476756   5.875410   6.703621   7.919574   8.370274
    15  H    1.075330   2.132714   3.373299   3.846372   3.378319
    16  H    3.373263   2.132873   1.075471   2.142620   3.378979
    17  H    3.846467   3.372837   2.133071   1.075183   2.138409
    18  H    3.374902   3.847789   3.374812   2.137326   1.075236
    19  H    2.133508   3.372813   3.846598   3.374193   2.137967
    20  H    3.106870   2.089886   2.855412   4.147762   4.745198
    21  H    3.576842   3.003056   3.468925   4.334641   4.741471
    22  H    3.016440   3.053384   4.066804   4.846566   4.816657
                    6          7          8          9         10
     6  C    0.000000
     7  N    3.704955   0.000000
     8  C    4.515087   1.344501   0.000000
     9  C    5.817616   2.421205   1.334858   0.000000
    10  C    4.492447   2.513000   1.507693   2.291274   0.000000
    11  C    6.557362   3.608039   2.288051   1.460796   2.277596
    12  O    5.863923   3.596087   2.305738   2.261615   1.403369
    13  Br   6.969654   3.331545   2.870704   1.866958   4.125562
    14  O    7.723062   4.725934   3.436126   2.399890   3.398417
    15  H    2.142731   2.648905   3.201556   4.316833   3.392653
    16  H    3.846850   2.643061   3.506846   4.516404   4.083081
    17  H    3.373981   4.565007   5.482252   6.687407   5.641911
    18  H    2.136776   5.272898   6.152248   7.479281   6.054846
    19  H    1.075179   4.568510   5.282116   6.545442   5.140639
    20  H    4.328130   0.996019   1.996703   2.635806   3.386249
    21  H    4.411343   2.858183   2.155647   3.029909   1.083290
    22  H    3.998403   2.873995   2.162293   3.033594   1.082252
                   11         12         13         14         15
    11  C    0.000000
    12  O    1.353806   0.000000
    13  Br   2.938988   4.057060   0.000000
    14  O    1.179391   2.224563   3.324362   0.000000
    15  H    5.068427   4.590207   5.422667   6.170749   0.000000
    16  H    5.496282   5.245866   5.261487   6.573540   4.255203
    17  H    7.522330   6.952008   7.608872   8.654566   4.921500
    18  H    8.206400   7.435261   8.597235   9.379623   4.267686
    19  H    7.198057   6.446466   7.722656   8.334664   2.465383
    20  H    4.023143   4.295606   2.925452   5.034908   3.280026
    21  H    3.007114   2.044023   4.788798   4.060865   3.834783
    22  H    3.006505   2.039530   4.798909   4.059808   2.783405
                   16         17         18         19         20
    16  H    0.000000
    17  H    2.465571   0.000000
    18  H    4.268236   2.463964   0.000000
    19  H    4.922013   4.264488   2.463677   0.000000
    20  H    2.853216   4.923781   5.804658   5.191080   0.000000
    21  H    3.634866   5.025643   5.642282   5.146137   3.754451
    22  H    4.560713   5.763344   5.719761   4.461516   3.802996
                   21         22
    21  H    0.000000
    22  H    1.761310   0.000000
 Stoichiometry    C10H8BrNO2
 Framework group  C1[X(C10H8BrNO2)]
 Deg. of freedom    60
 Full point group                 C1      NOp   1
 Largest Abelian subgroup         C1      NOp   1
 Largest concise Abelian subgroup C1      NOp   1
                         Standard orientation:                         
 ---------------------------------------------------------------------
 Center     Atomic      Atomic             Coordinates (Angstroms)
 Number     Number       Type             X           Y           Z
 ---------------------------------------------------------------------
      1          6           0       -2.746445    0.091047    1.168085
      2          6           0       -2.078193   -0.417418    0.064116
      3          6           0       -2.785160   -0.743910   -1.084225
      4          6           0       -4.156809   -0.559098   -1.127180
      5          6           0       -4.822916   -0.037016   -0.029913
      6          6           0       -4.116510    0.289698    1.115769
      7          7           0       -0.669716   -0.628997    0.114618
      8          6           0        0.260435    0.336003    0.008421
      9          6           0        1.590888    0.229172   -0.009667
     10          6           0       -0.072977    1.799862   -0.129754
     11          6           0        2.191034    1.552894   -0.156325
     12          8           0        1.171733    2.441419   -0.222206
     13         35           0        2.583461   -1.347345    0.112499
     14          8           0        3.323477    1.876939   -0.215752
     15          1           0       -2.194752    0.316750    2.063086
     16          1           0       -2.258808   -1.138657   -1.934969
     17          1           0       -4.701727   -0.815670   -2.017828
     18          1           0       -5.887245    0.111229   -0.066796
     19          1           0       -4.630406    0.687510    1.972312
     20          1           0       -0.333730   -1.566554    0.127025
     21          1           0       -0.654654    1.992993   -1.022990
     22          1           0       -0.613587    2.178202    0.728074
 ---------------------------------------------------------------------
 Rotational constants (GHZ):      1.0572110      0.2646170      0.2271486
 Leave Link  202 at Fri Jul 05 20:31:38 2019, MaxMem=  209715200 cpu:       0.0
 (Enter C:\G09W\l301.exe)
 Standard basis: 6-311++G(d,p) (5D, 7F)
 Ernie: Thresh=  0.10000D-02 Tol=  0.10000D-05 Strict=F.
 There are   390 symmetry adapted basis functions of A   symmetry.
 Integral buffers will be    262144 words long.
 Raffenetti 2 integral format.
 Two-electron integral symmetry is turned on.
   390 basis functions,   634 primitive gaussians,   406 cartesian basis functions
    63 alpha electrons       63 beta electrons
       nuclear repulsion energy      1135.4640183025 Hartrees.
 IExCor=  402 DFT=T Ex+Corr=B3LYP ExCW=0 ScaHFX=  0.200000
 ScaDFX=  0.800000  0.720000  1.000000  0.810000 ScalE2=  1.000000  1.000000
 IRadAn=      0 IRanWt=     -1 IRanGd=            0 ICorTp=0
 NAtoms=   22 NActive=   22 NUniq=   22 SFac= 7.50D-01 NAtFMM=   80 NAOKFM=F Big=F
 Leave Link  301 at Fri Jul 05 20:31:38 2019, MaxMem=  209715200 cpu:       0.0
 (Enter C:\G09W\l302.exe)
 NPDir=0 NMtPBC=     1 NCelOv=     1 NCel=       1 NClECP=     1 NCelD=      1
         NCelK=      1 NCelE2=     1 NClLst=     1 CellRange=     0.0.
 One-electron integrals computed using PRISM.
 NBasis=   390 RedAO= T  NBF=   390
 NBsUse=   389 1.00D-06 NBFU=   389
 Precomputing XC quadrature grid using
 IXCGrd= 2 IRadAn=           0 IRanWt=          -1 IRanGd=           0 AccXCQ= 1.00D-10.
 NRdTot=    1428 NPtTot=      186102 NUsed=      192760 NTot=      192776
 NSgBfM=   404   404   404   404   404 NAtAll=    22    22.
 Leave Link  302 at Fri Jul 05 20:31:39 2019, MaxMem=  209715200 cpu:       1.0
 (Enter C:\G09W\l303.exe)
 DipDrv:  MaxL=1.
 Leave Link  303 at Fri Jul 05 20:31:39 2019, MaxMem=  209715200 cpu:       0.0
 (Enter C:\G09W\l401.exe)
 Harris functional with IExCor=  402 diagonalized for initial guess.
 ExpMin= 3.50D-02 ExpMax= 4.40D+05 ExpMxC= 1.51D+04 IAcc=3 IRadAn=         0 AccDes= 0.00D+00
 HarFok:  IExCor=  402 AccDes= 0.00D+00 IRadAn=         0 IDoV= 1
 ScaDFX=  1.000000  1.000000  1.000000  1.000000
 FoFCou: FMM=F IPFlag=           0 FMFlag=      100000 FMFlg1=           0
         NFxFlg=           0 DoJE=T BraDBF=F KetDBF=T FulRan=T
         Omega=  0.000000  0.000000  1.000000  0.000000  0.000000 ICntrl=     500 IOpCl=  0
         NMat0=    1 NMatS0=    1 NMatT0=    0 NMatD0=    1 NMtDS0=    0 NMtDT0=    0
         I1Cent=           4 NGrid=           0.
 Petite list used in FoFCou.
 Harris En= -3165.58340526787    
 Initial guess orbital symmetries:
       Occupied  (A) (A) (A) (A) (A) (A) (A) (A) (A) (A) (A) (A)
                 (A) (A) (A) (A) (A) (A) (A) (A) (A) (A) (A) (A)
                 (A) (A) (A) (A) (A) (A) (A) (A) (A) (A) (A) (A)
                 (A) (A) (A) (A) (A) (A) (A) (A) (A) (A) (A) (A)
                 (A) (A) (A) (A) (A) (A) (A) (A) (A) (A) (A) (A)
                 (A) (A) (A)
       Virtual   (A) (A) (A) (A) (A) (A) (A) (A) (A) (A) (A) (A)
                 (A) (A) (A) (A) (A) (A) (A) (A) (A) (A) (A) (A)
                 (A) (A) (A) (A) (A) (A) (A) (A) (A) (A) (A) (A)
                 (A) (A) (A) (A) (A) (A) (A) (A) (A) (A) (A) (A)
                 (A) (A) (A) (A) (A) (A) (A) (A) (A) (A) (A) (A)
                 (A) (A) (A) (A) (A) (A) (A) (A) (A) (A) (A) (A)
                 (A) (A) (A) (A) (A) (A) (A) (A) (A) (A) (A) (A)
                 (A) (A) (A) (A) (A) (A) (A) (A) (A) (A) (A) (A)
                 (A) (A) (A) (A) (A) (A) (A) (A) (A) (A) (A) (A)
                 (A) (A) (A) (A) (A) (A) (A) (A) (A) (A) (A) (A)
                 (A) (A) (A) (A) (A) (A) (A) (A) (A) (A) (A) (A)
                 (A) (A) (A) (A) (A) (A) (A) (A) (A) (A) (A) (A)
                 (A) (A) (A) (A) (A) (A) (A) (A) (A) (A) (A) (A)
                 (A) (A) (A) (A) (A) (A) (A) (A) (A) (A) (A) (A)
                 (A) (A) (A) (A) (A) (A) (A) (A) (A) (A) (A) (A)
                 (A) (A) (A) (A) (A) (A) (A) (A) (A) (A) (A) (A)
                 (A) (A) (A) (A) (A) (A) (A) (A) (A) (A) (A) (A)
                 (A) (A) (A) (A) (A) (A) (A) (A) (A) (A) (A) (A)
                 (A) (A) (A) (A) (A) (A) (A) (A) (A) (A) (A) (A)
                 (A) (A) (A) (A) (A) (A) (A) (A) (A) (A) (A) (A)
                 (A) (A) (A) (A) (A) (A) (A) (A) (A) (A) (A) (A)
                 (A) (A) (A) (A) (A) (A) (A) (A) (A) (A) (A) (A)
                 (A) (A) (A) (A) (A) (A) (A) (A) (A) (A) (A) (A)
                 (A) (A) (A) (A) (A) (A) (A) (A) (A) (A) (A) (A)
                 (A) (A) (A) (A) (A) (A) (A) (A) (A) (A) (A) (A)
                 (A) (A) (A) (A) (A) (A) (A) (A) (A) (A) (A) (A)
                 (A) (A) (A) (A) (A) (A) (A) (A) (A) (A) (A) (A)
                 (A) (A)
 The electronic state of the initial guess is 1-A.
 Leave Link  401 at Fri Jul 05 20:31:44 2019, MaxMem=  209715200 cpu:       5.0
 (Enter C:\G09W\l502.exe)
 Closed shell SCF:
 Requested convergence on RMS density matrix=1.00D-08 within 128 cycles.
 Requested convergence on MAX density matrix=1.00D-06.
 Requested convergence on             energy=1.00D-06.
 No special actions if energy rises.
 Using DIIS extrapolation, IDIIS=  1040.
 Integral symmetry usage will be decided dynamically.
       192572 words used for storage of precomputed grid.
 IEnd=      710171 IEndB=      710171 NGot=   209715200 MDV=   209186912
 LenX=   209186912 LenY=   209021635
 Fock matrices will be formed incrementally for  20 cycles.

 Cycle   1  Pass 1  IDiag  1:
 FoFCou: FMM=F IPFlag=           0 FMFlag=      100000 FMFlg1=           0
         NFxFlg=           0 DoJE=F BraDBF=F KetDBF=F FulRan=T
         Omega=  0.000000  0.000000  1.000000  0.000000  0.000000 ICntrl=       0 IOpCl=  0
         NMat0=    1 NMatS0=    1 NMatT0=    0 NMatD0=    1 NMtDS0=    0 NMtDT0=    0
         I1Cent=           0 NGrid=           0.
 Symmetry not used in FoFCou.
 E= -3164.93918022715    
 DIIS: error= 8.83D-02 at cycle   1 NSaved=   1.
 NSaved= 1 IEnMin= 1 EnMin= -3164.93918022715     IErMin= 1 ErrMin= 8.83D-02
 ErrMax= 8.83D-02 EMaxC= 1.00D-01 BMatC= 1.98D+00 BMatP= 1.98D+00
 IDIUse=3 WtCom= 1.17D-01 WtEn= 8.83D-01
 Coeff-Com:  0.100D+01
 Coeff-En:   0.100D+01
 Coeff:      0.100D+01
 Gap=     0.365 Goal=   None    Shift=    0.000
 GapD=    0.365 DampG=1.000 DampE=0.500 DampFc=0.5000 IDamp=-1.
 Damping current iteration by 5.00D-01
 RMSDP=4.79D-02 MaxDP=8.65D+00              OVMax= 2.67D-01

 Cycle   2  Pass 1  IDiag  1:
 RMSU=  1.57D-02    CP:  1.21D+00
 E= -3165.09785441403     Delta-E=       -0.158674186886 Rises=F Damp=T
 DIIS: error= 4.59D-02 at cycle   2 NSaved=   2.
 NSaved= 2 IEnMin= 2 EnMin= -3165.09785441403     IErMin= 2 ErrMin= 4.59D-02
 ErrMax= 4.59D-02 EMaxC= 1.00D-01 BMatC= 2.43D-01 BMatP= 1.98D+00
 IDIUse=3 WtCom= 5.41D-01 WtEn= 4.59D-01
 Coeff-Com: -0.134D+00 0.113D+01
 Coeff-En:   0.249D+00 0.751D+00
 Coeff:      0.417D-01 0.958D+00
 Gap=     0.326 Goal=   None    Shift=    0.000
 RMSDP=2.31D-02 MaxDP=4.59D+00 DE=-1.59D-01 OVMax= 2.20D-01

 Cycle   3  Pass 1  IDiag  1:
 RMSU=  4.32D-03    CP:  9.24D-01  1.58D-01
 E= -3165.29677075810     Delta-E=       -0.198916344068 Rises=F Damp=F
 DIIS: error= 2.16D-02 at cycle   3 NSaved=   3.
 NSaved= 3 IEnMin= 3 EnMin= -3165.29677075810     IErMin= 3 ErrMin= 2.16D-02
 ErrMax= 2.16D-02 EMaxC= 1.00D-01 BMatC= 1.11D-01 BMatP= 2.43D-01
 IDIUse=3 WtCom= 7.84D-01 WtEn= 2.16D-01
 Coeff-Com: -0.121D+00 0.493D+00 0.628D+00
 Coeff-En:   0.000D+00 0.000D+00 0.100D+01
 Coeff:     -0.945D-01 0.386D+00 0.708D+00
 Gap=     0.188 Goal=   None    Shift=    0.000
 RMSDP=8.87D-03 MaxDP=9.30D-01 DE=-1.99D-01 OVMax= 1.81D-01

 Cycle   4  Pass 1  IDiag  1:
 RMSU=  4.26D-03    CP:  9.74D-01  4.32D-01  1.16D+00
 E= -3165.28928088109     Delta-E=        0.007489877014 Rises=F Damp=F
 DIIS: error= 2.10D-02 at cycle   4 NSaved=   4.
 NSaved= 4 IEnMin= 3 EnMin= -3165.29677075810     IErMin= 4 ErrMin= 2.10D-02
 ErrMax= 2.10D-02 EMaxC= 1.00D-01 BMatC= 1.15D-01 BMatP= 1.11D-01
 IDIUse=3 WtCom= 7.90D-01 WtEn= 2.10D-01
 Coeff-Com: -0.562D-01 0.165D+00 0.509D+00 0.382D+00
 Coeff-En:   0.000D+00 0.000D+00 0.517D+00 0.483D+00
 Coeff:     -0.444D-01 0.130D+00 0.511D+00 0.404D+00
 Gap=     0.235 Goal=   None    Shift=    0.000
 RMSDP=6.27D-03 MaxDP=8.85D-01 DE= 7.49D-03 OVMax= 9.15D-02

 Cycle   5  Pass 1  IDiag  1:
 RMSU=  1.65D-03    CP:  8.84D-01  3.02D-01  9.91D-01  4.76D-01
 E= -3165.37726554201     Delta-E=       -0.087984660921 Rises=F Damp=F
 DIIS: error= 1.81D-03 at cycle   5 NSaved=   5.
 NSaved= 5 IEnMin= 5 EnMin= -3165.37726554201     IErMin= 5 ErrMin= 1.81D-03
 ErrMax= 1.81D-03 EMaxC= 1.00D-01 BMatC= 1.41D-03 BMatP= 1.11D-01
 IDIUse=3 WtCom= 9.82D-01 WtEn= 1.81D-02
 Coeff-Com: -0.725D-02 0.237D-01 0.172D+00 0.180D+00 0.632D+00
 Coeff-En:   0.000D+00 0.000D+00 0.000D+00 0.000D+00 0.100D+01
 Coeff:     -0.712D-02 0.232D-01 0.169D+00 0.177D+00 0.638D+00
 Gap=     0.187 Goal=   None    Shift=    0.000
 RMSDP=1.24D-03 MaxDP=1.63D-01 DE=-8.80D-02 OVMax= 1.14D-02

 Cycle   6  Pass 1  IDiag  1:
 RMSU=  3.53D-04    CP:  8.99D-01  3.10D-01  1.06D+00  5.27D-01  6.73D-01
 E= -3165.37845876835     Delta-E=       -0.001193226343 Rises=F Damp=F
 DIIS: error= 5.36D-04 at cycle   6 NSaved=   6.
 NSaved= 6 IEnMin= 6 EnMin= -3165.37845876835     IErMin= 6 ErrMin= 5.36D-04
 ErrMax= 5.36D-04 EMaxC= 1.00D-01 BMatC= 1.67D-04 BMatP= 1.41D-03
 IDIUse=3 WtCom= 9.95D-01 WtEn= 5.36D-03
 Coeff-Com:  0.188D-02-0.345D-02 0.283D-01 0.438D-01 0.341D+00 0.588D+00
 Coeff-En:   0.000D+00 0.000D+00 0.000D+00 0.000D+00 0.413D-01 0.959D+00
 Coeff:      0.187D-02-0.343D-02 0.282D-01 0.435D-01 0.339D+00 0.590D+00
 Gap=     0.185 Goal=   None    Shift=    0.000
 RMSDP=2.65D-04 MaxDP=3.60D-02 DE=-1.19D-03 OVMax= 2.18D-03

 Cycle   7  Pass 1  IDiag  1:
 RMSU=  7.77D-05    CP:  8.99D-01  3.04D-01  1.06D+00  5.25D-01  6.80D-01
                    CP:  6.02D-01
 E= -3165.37859029410     Delta-E=       -0.000131525745 Rises=F Damp=F
 DIIS: error= 1.42D-04 at cycle   7 NSaved=   7.
 NSaved= 7 IEnMin= 7 EnMin= -3165.37859029410     IErMin= 7 ErrMin= 1.42D-04
 ErrMax= 1.42D-04 EMaxC= 1.00D-01 BMatC= 1.05D-05 BMatP= 1.67D-04
 IDIUse=3 WtCom= 9.99D-01 WtEn= 1.42D-03
 Coeff-Com:  0.124D-02-0.273D-02-0.259D-03 0.360D-02 0.105D+00 0.272D+00
 Coeff-Com:  0.621D+00
 Coeff-En:   0.000D+00 0.000D+00 0.000D+00 0.000D+00 0.000D+00 0.000D+00
 Coeff-En:   0.100D+01
 Coeff:      0.124D-02-0.273D-02-0.259D-03 0.359D-02 0.105D+00 0.271D+00
 Coeff:      0.622D+00
 Gap=     0.185 Goal=   None    Shift=    0.000
 RMSDP=1.06D-04 MaxDP=1.20D-02 DE=-1.32D-04 OVMax= 1.12D-03

 Cycle   8  Pass 1  IDiag  1:
 RMSU=  1.98D-05    CP:  8.98D-01  3.04D-01  1.05D+00  5.21D-01  7.09D-01
                    CP:  6.44D-01  8.18D-01
 E= -3165.37859870020     Delta-E=       -0.000008406101 Rises=F Damp=F
 DIIS: error= 6.13D-05 at cycle   8 NSaved=   8.
 NSaved= 8 IEnMin= 8 EnMin= -3165.37859870020     IErMin= 8 ErrMin= 6.13D-05
 ErrMax= 6.13D-05 EMaxC= 1.00D-01 BMatC= 1.33D-06 BMatP= 1.05D-05
 IDIUse=1 WtCom= 1.00D+00 WtEn= 0.00D+00
 Coeff-Com:  0.633D-03-0.141D-02-0.804D-03 0.187D-03 0.455D-01 0.130D+00
 Coeff-Com:  0.367D+00 0.459D+00
 Coeff:      0.633D-03-0.141D-02-0.804D-03 0.187D-03 0.455D-01 0.130D+00
 Coeff:      0.367D+00 0.459D+00
 Gap=     0.185 Goal=   None    Shift=    0.000
 RMSDP=1.90D-05 MaxDP=1.67D-03 DE=-8.41D-06 OVMax= 4.07D-04

 Cycle   9  Pass 1  IDiag  1:
 RMSU=  5.04D-06    CP:  8.98D-01  3.04D-01  1.05D+00  5.23D-01  7.08D-01
                    CP:  6.57D-01  7.94D-01  6.95D-01
 E= -3165.37859973005     Delta-E=       -0.000001029851 Rises=F Damp=F
 DIIS: error= 3.02D-05 at cycle   9 NSaved=   9.
 NSaved= 9 IEnMin= 9 EnMin= -3165.37859973005     IErMin= 9 ErrMin= 3.02D-05
 ErrMax= 3.02D-05 EMaxC= 1.00D-01 BMatC= 1.63D-07 BMatP= 1.33D-06
 IDIUse=1 WtCom= 1.00D+00 WtEn= 0.00D+00
 Coeff-Com:  0.200D-03-0.463D-03-0.376D-03-0.645D-03 0.103D-01 0.351D-01
 Coeff-Com:  0.126D+00 0.278D+00 0.552D+00
 Coeff:      0.200D-03-0.463D-03-0.376D-03-0.645D-03 0.103D-01 0.351D-01
 Coeff:      0.126D+00 0.278D+00 0.552D+00
 Gap=     0.185 Goal=   None    Shift=    0.000
 RMSDP=1.19D-05 MaxDP=1.14D-03 DE=-1.03D-06 OVMax= 1.46D-04

 Cycle  10  Pass 1  IDiag  1:
 RMSU=  1.82D-06    CP:  8.98D-01  3.04D-01  1.05D+00  5.22D-01  7.07D-01
                    CP:  6.59D-01  7.97D-01  7.59D-01  7.65D-01
 E= -3165.37859989111     Delta-E=       -0.000000161062 Rises=F Damp=F
 DIIS: error= 4.39D-06 at cycle  10 NSaved=  10.
 NSaved=10 IEnMin=10 EnMin= -3165.37859989111     IErMin=10 ErrMin= 4.39D-06
 ErrMax= 4.39D-06 EMaxC= 1.00D-01 BMatC= 9.82D-09 BMatP= 1.63D-07
 IDIUse=1 WtCom= 1.00D+00 WtEn= 0.00D+00
 Coeff-Com:  0.566D-04-0.132D-03-0.117D-03-0.343D-03 0.196D-02 0.833D-02
 Coeff-Com:  0.365D-01 0.106D+00 0.287D+00 0.561D+00
 Coeff:      0.566D-04-0.132D-03-0.117D-03-0.343D-03 0.196D-02 0.833D-02
 Coeff:      0.365D-01 0.106D+00 0.287D+00 0.561D+00
 Gap=     0.185 Goal=   None    Shift=    0.000
 RMSDP=1.83D-06 MaxDP=1.10D-04 DE=-1.61D-07 OVMax= 3.49D-05

 Cycle  11  Pass 1  IDiag  1:
 RMSU=  6.97D-07    CP:  8.98D-01  3.04D-01  1.05D+00  5.22D-01  7.07D-01
                    CP:  6.58D-01  8.04D-01  7.59D-01  8.09D-01  8.17D-01
 E= -3165.37859989873     Delta-E=       -0.000000007622 Rises=F Damp=F
 DIIS: error= 2.03D-06 at cycle  11 NSaved=  11.
 NSaved=11 IEnMin=11 EnMin= -3165.37859989873     IErMin=11 ErrMin= 2.03D-06
 ErrMax= 2.03D-06 EMaxC= 1.00D-01 BMatC= 2.34D-09 BMatP= 9.82D-09
 IDIUse=1 WtCom= 1.00D+00 WtEn= 0.00D+00
 Coeff-Com:  0.932D-05-0.229D-04-0.456D-04-0.132D-03-0.104D-03 0.566D-03
 Coeff-Com:  0.566D-02 0.277D-01 0.976D-01 0.357D+00 0.511D+00
 Coeff:      0.932D-05-0.229D-04-0.456D-04-0.132D-03-0.104D-03 0.566D-03
 Coeff:      0.566D-02 0.277D-01 0.976D-01 0.357D+00 0.511D+00
 Gap=     0.185 Goal=   None    Shift=    0.000
 RMSDP=6.56D-07 MaxDP=4.66D-05 DE=-7.62D-09 OVMax= 1.37D-05

 Cycle  12  Pass 1  IDiag  1:
 RMSU=  1.90D-07    CP:  8.98D-01  3.04D-01  1.05D+00  5.22D-01  7.07D-01
                    CP:  6.58D-01  8.02D-01  7.57D-01  8.15D-01  8.52D-01
                    CP:  7.27D-01
 E= -3165.37859990086     Delta-E=       -0.000000002127 Rises=F Damp=F
 DIIS: error= 5.01D-07 at cycle  12 NSaved=  12.
 NSaved=12 IEnMin=12 EnMin= -3165.37859990086     IErMin=12 ErrMin= 5.01D-07
 ErrMax= 5.01D-07 EMaxC= 1.00D-01 BMatC= 1.06D-10 BMatP= 2.34D-09
 IDIUse=1 WtCom= 1.00D+00 WtEn= 0.00D+00
 Coeff-Com: -0.338D-05 0.672D-05-0.117D-04-0.194D-04-0.252D-03-0.555D-03
 Coeff-Com: -0.105D-02 0.170D-02 0.977D-02 0.994D-01 0.212D+00 0.679D+00
 Coeff:     -0.338D-05 0.672D-05-0.117D-04-0.194D-04-0.252D-03-0.555D-03
 Coeff:     -0.105D-02 0.170D-02 0.977D-02 0.994D-01 0.212D+00 0.679D+00
 Gap=     0.185 Goal=   None    Shift=    0.000
 RMSDP=1.88D-07 MaxDP=2.41D-05 DE=-2.13D-09 OVMax= 3.49D-06

 Cycle  13  Pass 1  IDiag  1:
 RMSU=  5.61D-08    CP:  8.98D-01  3.04D-01  1.05D+00  5.22D-01  7.07D-01
                    CP:  6.58D-01  8.02D-01  7.59D-01  8.20D-01  8.63D-01
                    CP:  7.49D-01  8.91D-01
 E= -3165.37859990097     Delta-E=       -0.000000000114 Rises=F Damp=F
 DIIS: error= 2.21D-07 at cycle  13 NSaved=  13.
 NSaved=13 IEnMin=13 EnMin= -3165.37859990097     IErMin=13 ErrMin= 2.21D-07
 ErrMax= 2.21D-07 EMaxC= 1.00D-01 BMatC= 1.79D-11 BMatP= 1.06D-10
 IDIUse=1 WtCom= 1.00D+00 WtEn= 0.00D+00
 Coeff-Com: -0.274D-05 0.575D-05-0.407D-05 0.253D-06-0.149D-03-0.399D-03
 Coeff-Com: -0.116D-02-0.125D-02-0.301D-02 0.249D-01 0.729D-01 0.386D+00
 Coeff-Com:  0.522D+00
 Coeff:     -0.274D-05 0.575D-05-0.407D-05 0.253D-06-0.149D-03-0.399D-03
 Coeff:     -0.116D-02-0.125D-02-0.301D-02 0.249D-01 0.729D-01 0.386D+00
 Coeff:      0.522D+00
 Gap=     0.185 Goal=   None    Shift=    0.000
 RMSDP=5.13D-08 MaxDP=6.46D-06 DE=-1.14D-10 OVMax= 1.56D-06

 Cycle  14  Pass 1  IDiag  1:
 RMSU=  1.83D-08    CP:  8.98D-01  3.04D-01  1.05D+00  5.22D-01  7.07D-01
                    CP:  6.58D-01  8.02D-01  7.59D-01  8.21D-01  8.66D-01
                    CP:  7.56D-01  9.10D-01  7.42D-01
 E= -3165.37859990096     Delta-E=        0.000000000015 Rises=F Damp=F
 DIIS: error= 6.74D-08 at cycle  14 NSaved=  14.
 NSaved=14 IEnMin=13 EnMin= -3165.37859990097     IErMin=14 ErrMin= 6.74D-08
 ErrMax= 6.74D-08 EMaxC= 1.00D-01 BMatC= 1.30D-12 BMatP= 1.79D-11
 IDIUse=1 WtCom= 1.00D+00 WtEn= 0.00D+00
 Coeff-Com: -0.843D-06 0.176D-05-0.151D-05 0.173D-05-0.467D-04-0.140D-03
 Coeff-Com: -0.454D-03-0.611D-03-0.226D-02 0.297D-02 0.152D-01 0.132D+00
 Coeff-Com:  0.270D+00 0.583D+00
 Coeff:     -0.843D-06 0.176D-05-0.151D-05 0.173D-05-0.467D-04-0.140D-03
 Coeff:     -0.454D-03-0.611D-03-0.226D-02 0.297D-02 0.152D-01 0.132D+00
 Coeff:      0.270D+00 0.583D+00
 Gap=     0.185 Goal=   None    Shift=    0.000
 RMSDP=4.48D-08 MaxDP=8.54D-06 DE= 1.46D-11 OVMax= 5.52D-07

 Cycle  15  Pass 1  IDiag  1:
 RMSU=  9.65D-09    CP:  8.98D-01  3.04D-01  1.05D+00  5.22D-01  7.07D-01
                    CP:  6.58D-01  8.02D-01  7.59D-01  8.20D-01  8.64D-01
                    CP:  7.57D-01  8.90D-01  7.35D-01  7.60D-01
 E= -3165.37859990092     Delta-E=        0.000000000040 Rises=F Damp=F
 DIIS: error= 1.99D-08 at cycle  15 NSaved=  15.
 NSaved=15 IEnMin=13 EnMin= -3165.37859990097     IErMin=15 ErrMin= 1.99D-08
 ErrMax= 1.99D-08 EMaxC= 1.00D-01 BMatC= 1.42D-13 BMatP= 1.30D-12
 IDIUse=1 WtCom= 1.00D+00 WtEn= 0.00D+00
 Coeff-Com: -0.129D-06 0.272D-06-0.170D-06 0.622D-06-0.675D-05-0.254D-04
 Coeff-Com: -0.953D-04-0.143D-03-0.743D-03-0.978D-03-0.123D-03 0.231D-01
 Coeff-Com:  0.720D-01 0.292D+00 0.615D+00
 Coeff:     -0.129D-06 0.272D-06-0.170D-06 0.622D-06-0.675D-05-0.254D-04
 Coeff:     -0.953D-04-0.143D-03-0.743D-03-0.978D-03-0.123D-03 0.231D-01
 Coeff:      0.720D-01 0.292D+00 0.615D+00
 Gap=     0.185 Goal=   None    Shift=    0.000
 RMSDP=1.56D-08 MaxDP=2.70D-06 DE= 4.00D-11 OVMax= 1.32D-07

 Cycle  16  Pass 1  IDiag  1:
 RMSU=  2.06D-09    CP:  8.98D-01  3.04D-01  1.05D+00  5.22D-01  7.07D-01
                    CP:  6.58D-01  8.02D-01  7.59D-01  8.20D-01  8.65D-01
                    CP:  7.57D-01  9.00D-01  7.32D-01  7.76D-01  8.77D-01
 E= -3165.37859990089     Delta-E=        0.000000000024 Rises=F Damp=F
 DIIS: error= 5.86D-09 at cycle  16 NSaved=  16.
 NSaved=16 IEnMin=13 EnMin= -3165.37859990097     IErMin=16 ErrMin= 5.86D-09
 ErrMax= 5.86D-09 EMaxC= 1.00D-01 BMatC= 2.36D-14 BMatP= 1.42D-13
 IDIUse=1 WtCom= 1.00D+00 WtEn= 0.00D+00
 Coeff-Com:  0.106D-07-0.143D-07 0.196D-06 0.121D-06 0.134D-05 0.757D-06
 Coeff-Com: -0.443D-05-0.247D-04-0.183D-03-0.109D-02-0.223D-02-0.468D-02
 Coeff-Com:  0.474D-02 0.921D-01 0.348D+00 0.563D+00
 Coeff:      0.106D-07-0.143D-07 0.196D-06 0.121D-06 0.134D-05 0.757D-06
 Coeff:     -0.443D-05-0.247D-04-0.183D-03-0.109D-02-0.223D-02-0.468D-02
 Coeff:      0.474D-02 0.921D-01 0.348D+00 0.563D+00
 Gap=     0.185 Goal=   None    Shift=    0.000
 RMSDP=4.85D-09 MaxDP=7.86D-07 DE= 2.36D-11 OVMax= 3.23D-08

 SCF Done:  E(RB3LYP) =  -3165.37859990     A.U. after   16 cycles
             Convg  =    0.4853D-08             -V/T =  2.0015
 KE= 3.160505821629D+03 PE=-9.802099316848D+03 EE= 2.340750877015D+03
 Leave Link  502 at Fri Jul 05 20:37:39 2019, MaxMem=  209715200 cpu:     355.0
 (Enter C:\G09W\l601.exe)
 Copying SCF densities to generalized density rwf, IOpCl= 0 IROHF=0.

 **********************************************************************

            Population analysis using the SCF density.

 **********************************************************************

 Orbital symmetries:
       Occupied  (A) (A) (A) (A) (A) (A) (A) (A) (A) (A) (A) (A)
                 (A) (A) (A) (A) (A) (A) (A) (A) (A) (A) (A) (A)
                 (A) (A) (A) (A) (A) (A) (A) (A) (A) (A) (A) (A)
                 (A) (A) (A) (A) (A) (A) (A) (A) (A) (A) (A) (A)
                 (A) (A) (A) (A) (A) (A) (A) (A) (A) (A) (A) (A)
                 (A) (A) (A)
       Virtual   (A) (A) (A) (A) (A) (A) (A) (A) (A) (A) (A) (A)
                 (A) (A) (A) (A) (A) (A) (A) (A) (A) (A) (A) (A)
                 (A) (A) (A) (A) (A) (A) (A) (A) (A) (A) (A) (A)
                 (A) (A) (A) (A) (A) (A) (A) (A) (A) (A) (A) (A)
                 (A) (A) (A) (A) (A) (A) (A) (A) (A) (A) (A) (A)
                 (A) (A) (A) (A) (A) (A) (A) (A) (A) (A) (A) (A)
                 (A) (A) (A) (A) (A) (A) (A) (A) (A) (A) (A) (A)
                 (A) (A) (A) (A) (A) (A) (A) (A) (A) (A) (A) (A)
                 (A) (A) (A) (A) (A) (A) (A) (A) (A) (A) (A) (A)
                 (A) (A) (A) (A) (A) (A) (A) (A) (A) (A) (A) (A)
                 (A) (A) (A) (A) (A) (A) (A) (A) (A) (A) (A) (A)
                 (A) (A) (A) (A) (A) (A) (A) (A) (A) (A) (A) (A)
                 (A) (A) (A) (A) (A) (A) (A) (A) (A) (A) (A) (A)
                 (A) (A) (A) (A) (A) (A) (A) (A) (A) (A) (A) (A)
                 (A) (A) (A) (A) (A) (A) (A) (A) (A) (A) (A) (A)
                 (A) (A) (A) (A) (A) (A) (A) (A) (A) (A) (A) (A)
                 (A) (A) (A) (A) (A) (A) (A) (A) (A) (A) (A) (A)
                 (A) (A) (A) (A) (A) (A) (A) (A) (A) (A) (A) (A)
                 (A) (A) (A) (A) (A) (A) (A) (A) (A) (A) (A) (A)
                 (A) (A) (A) (A) (A) (A) (A) (A) (A) (A) (A) (A)
                 (A) (A) (A) (A) (A) (A) (A) (A) (A) (A) (A) (A)
                 (A) (A) (A) (A) (A) (A) (A) (A) (A) (A) (A) (A)
                 (A) (A) (A) (A) (A) (A) (A) (A) (A) (A) (A) (A)
                 (A) (A) (A) (A) (A) (A) (A) (A) (A) (A) (A) (A)
                 (A) (A) (A) (A) (A) (A) (A) (A) (A) (A) (A) (A)
                 (A) (A) (A) (A) (A) (A) (A) (A) (A) (A) (A) (A)
                 (A) (A) (A) (A) (A) (A) (A) (A) (A) (A) (A) (A)
                 (A) (A)
 The electronic state is 1-A.
 Alpha  occ. eigenvalues -- -482.84228 -62.49501 -56.31540 -56.31144 -56.31142
 Alpha  occ. eigenvalues --  -19.16939 -19.09947 -14.37349 -10.29582 -10.25858
 Alpha  occ. eigenvalues --  -10.25605 -10.24617 -10.22072 -10.20579 -10.20555
 Alpha  occ. eigenvalues --  -10.20442 -10.20430 -10.20273  -8.70482  -6.53640
 Alpha  occ. eigenvalues --   -6.52315  -6.52301  -2.64737  -2.64348  -2.64335
 Alpha  occ. eigenvalues --   -2.63285  -2.63283  -1.12580  -1.04024  -0.99559
 Alpha  occ. eigenvalues --   -0.89378  -0.85054  -0.79474  -0.78606  -0.76833
 Alpha  occ. eigenvalues --   -0.74137  -0.65860  -0.64863  -0.62106  -0.59544
 Alpha  occ. eigenvalues --   -0.55741  -0.54138  -0.52503  -0.52149  -0.49870
 Alpha  occ. eigenvalues --   -0.49742  -0.47113  -0.45944  -0.43762  -0.42393
 Alpha  occ. eigenvalues --   -0.41165  -0.40534  -0.39752  -0.39535  -0.38229
 Alpha  occ. eigenvalues --   -0.37701  -0.32338  -0.30755  -0.30603  -0.29117
 Alpha  occ. eigenvalues --   -0.29017  -0.28024  -0.23551
 Alpha virt. eigenvalues --   -0.05009  -0.04612  -0.02593  -0.02315  -0.01491
 Alpha virt. eigenvalues --   -0.00557  -0.00417   0.00947   0.01686   0.02034
 Alpha virt. eigenvalues --    0.02253   0.03733   0.04326   0.04706   0.05411
 Alpha virt. eigenvalues --    0.05578   0.06436   0.07171   0.07296   0.08036
 Alpha virt. eigenvalues --    0.08465   0.08811   0.08900   0.09367   0.09606
 Alpha virt. eigenvalues --    0.10001   0.10331   0.10815   0.10854   0.11076
 Alpha virt. eigenvalues --    0.11390   0.11621   0.12229   0.12475   0.12872
 Alpha virt. eigenvalues --    0.13441   0.14038   0.14232   0.14503   0.14958
 Alpha virt. eigenvalues --    0.15599   0.15908   0.16195   0.16652   0.17388
 Alpha virt. eigenvalues --    0.17746   0.18339   0.18492   0.19201   0.19647
 Alpha virt. eigenvalues --    0.20064   0.20355   0.21270   0.21900   0.22222
 Alpha virt. eigenvalues --    0.22985   0.23012   0.24024   0.24391   0.25074
 Alpha virt. eigenvalues --    0.25224   0.25948   0.26526   0.26668   0.27406
 Alpha virt. eigenvalues --    0.28291   0.28755   0.29042   0.29714   0.30194
 Alpha virt. eigenvalues --    0.30960   0.31005   0.31667   0.31896   0.32546
 Alpha virt. eigenvalues --    0.33089   0.33457   0.34330   0.34650   0.35843
 Alpha virt. eigenvalues --    0.35989   0.37231   0.37455   0.38806   0.40431
 Alpha virt. eigenvalues --    0.41053   0.42498   0.42887   0.44275   0.46974
 Alpha virt. eigenvalues --    0.47492   0.48627   0.50446   0.50925   0.52336
 Alpha virt. eigenvalues --    0.53469   0.53658   0.54234   0.54459   0.54717
 Alpha virt. eigenvalues --    0.55436   0.56294   0.57497   0.58312   0.58631
 Alpha virt. eigenvalues --    0.59739   0.60423   0.61005   0.62399   0.64230
 Alpha virt. eigenvalues --    0.64712   0.65557   0.66081   0.67613   0.67860
 Alpha virt. eigenvalues --    0.68988   0.69562   0.70119   0.71227   0.72294
 Alpha virt. eigenvalues --    0.73076   0.74036   0.75167   0.75529   0.77168
 Alpha virt. eigenvalues --    0.77944   0.78781   0.81204   0.82425   0.82620
 Alpha virt. eigenvalues --    0.82989   0.84259   0.84767   0.86513   0.87208
 Alpha virt. eigenvalues --    0.88267   0.88716   0.89043   0.90905   0.92917
 Alpha virt. eigenvalues --    0.95051   0.96180   0.96685   0.99030   0.99698
 Alpha virt. eigenvalues --    1.01013   1.02063   1.03592   1.04763   1.05176
 Alpha virt. eigenvalues --    1.06529   1.07690   1.09074   1.10303   1.12570
 Alpha virt. eigenvalues --    1.14410   1.16201   1.17227   1.21452   1.21881
 Alpha virt. eigenvalues --    1.22948   1.24784   1.26547   1.27109   1.28587
 Alpha virt. eigenvalues --    1.32109   1.37054   1.38966   1.40514   1.41503
 Alpha virt. eigenvalues --    1.44122   1.45336   1.48824   1.50946   1.53006
 Alpha virt. eigenvalues --    1.54546   1.54837   1.55056   1.55953   1.59815
 Alpha virt. eigenvalues --    1.60764   1.62893   1.64166   1.64688   1.65524
 Alpha virt. eigenvalues --    1.68657   1.70192   1.70516   1.72462   1.72876
 Alpha virt. eigenvalues --    1.75326   1.76545   1.79299   1.81274   1.81487
 Alpha virt. eigenvalues --    1.82589   1.85391   1.86714   1.88394   1.90421
 Alpha virt. eigenvalues --    1.90980   1.91983   1.93032   1.93291   1.94330
 Alpha virt. eigenvalues --    1.96592   1.99881   2.00180   2.01879   2.02866
 Alpha virt. eigenvalues --    2.05127   2.06088   2.06595   2.07458   2.13235
 Alpha virt. eigenvalues --    2.14580   2.18115   2.19716   2.20058   2.20501
 Alpha virt. eigenvalues --    2.28189   2.30356   2.31679   2.38798   2.41137
 Alpha virt. eigenvalues --    2.43441   2.44449   2.45302   2.46791   2.52467
 Alpha virt. eigenvalues --    2.53279   2.54469   2.59653   2.62150   2.62767
 Alpha virt. eigenvalues --    2.64002   2.65146   2.67321   2.69050   2.69494
 Alpha virt. eigenvalues --    2.71394   2.72133   2.73145   2.76432   2.77973
 Alpha virt. eigenvalues --    2.79070   2.80412   2.84370   2.85399   2.87530
 Alpha virt. eigenvalues --    2.89503   2.90080   2.91880   2.93440   2.95484
 Alpha virt. eigenvalues --    2.98510   2.99225   3.00934   3.01773   3.06934
 Alpha virt. eigenvalues --    3.09271   3.11883   3.14633   3.15431   3.17670
 Alpha virt. eigenvalues --    3.19175   3.24386   3.25851   3.34274   3.36323
 Alpha virt. eigenvalues --    3.42493   3.45570   3.46802   3.48631   3.52834
 Alpha virt. eigenvalues --    3.61100   3.65331   3.68030   3.77678   3.79747
 Alpha virt. eigenvalues --    3.91022   3.97308   3.99292   4.01639   4.04749
 Alpha virt. eigenvalues --    4.06097   4.12375   4.13417   4.14403   4.15371
 Alpha virt. eigenvalues --    4.19846   4.22885   4.33641   4.39119   4.59472
 Alpha virt. eigenvalues --    4.83246   4.84325   5.02510   5.07304   5.09644
 Alpha virt. eigenvalues --    5.19377   5.43984   5.70445   5.91233   6.78021
 Alpha virt. eigenvalues --    7.55872   7.65287   7.77093  23.60050  23.63908
 Alpha virt. eigenvalues --   23.86040  23.94340  23.95818  23.97048  24.08290
 Alpha virt. eigenvalues --   24.10272  24.20261  24.21067  35.65661  48.02799
 Alpha virt. eigenvalues --   49.91258  50.09018 289.75538 289.84881 289.99051
 Alpha virt. eigenvalues -- 1020.84327
          Condensed to atoms (all electrons):
              1          2          3          4          5          6
     1  C   10.235384  -0.520408  -3.618648   0.446487  -0.549013  -0.131536
     2  C   -0.520408   9.946818  -0.701342  -0.467835   0.022962  -0.857158
     3  C   -3.618648  -0.701342   9.831514  -0.022046  -0.413766   0.457710
     4  C    0.446487  -0.467835  -0.022046   5.557071   0.411661  -0.065639
     5  C   -0.549013   0.022962  -0.413766   0.411661   5.973857   0.488635
     6  C   -0.131536  -0.857158   0.457710  -0.065639   0.488635   5.936049
     7  N   -0.176293  -0.447540  -0.062381   0.046259   0.060130   0.100851
     8  C   -0.586492   0.118958   0.347301   0.028890  -0.036770  -0.011444
     9  C    0.046807  -0.704049  -0.004736  -0.042639   0.014365  -0.024230
    10  C    0.359636   0.324026  -0.410681  -0.044237   0.010421  -0.046064
    11  C   -0.019583  -0.163235   0.064388   0.009972   0.000910   0.021577
    12  O   -0.006664   0.028607  -0.012592  -0.001331  -0.001560  -0.006363
    13  Br  -0.006223   0.042801   0.003393  -0.000898  -0.000444  -0.006080
    14  O    0.000912  -0.001224   0.001162   0.000065   0.000078   0.000214
    15  H    0.529494  -0.026906  -0.067503   0.015875   0.003927  -0.107261
    16  H   -0.072962  -0.058349   0.568572  -0.087773   0.005544   0.011466
    17  H    0.034779   0.024293  -0.091578   0.412939  -0.060012  -0.004739
    18  H   -0.003752   0.023689  -0.009506  -0.075373   0.467796  -0.070811
    19  H   -0.073078   0.018495   0.037472  -0.001442  -0.069126   0.400788
    20  H    0.009708  -0.128406  -0.028675   0.007173   0.016317   0.030184
    21  H   -0.033924   0.103394   0.006524  -0.011275  -0.004517  -0.018934
    22  H    0.031591  -0.092131  -0.008921   0.009676   0.010552   0.022725
              7          8          9         10         11         12
     1  C   -0.176293  -0.586492   0.046807   0.359636  -0.019583  -0.006664
     2  C   -0.447540   0.118958  -0.704049   0.324026  -0.163235   0.028607
     3  C   -0.062381   0.347301  -0.004736  -0.410681   0.064388  -0.012592
     4  C    0.046259   0.028890  -0.042639  -0.044237   0.009972  -0.001331
     5  C    0.060130  -0.036770   0.014365   0.010421   0.000910  -0.001560
     6  C    0.100851  -0.011444  -0.024230  -0.046064   0.021577  -0.006363
     7  N    7.477452   0.033892  -0.184487  -0.441709   0.184633  -0.020913
     8  C    0.033892  16.481423  -9.679633  -2.132547   1.708779   0.270868
     9  C   -0.184487  -9.679633  17.263096   1.177290  -1.589498  -0.476108
    10  C   -0.441709  -2.132547   1.177290   7.458809  -0.980017   0.270675
    11  C    0.184633   1.708779  -1.589498  -0.980017   6.190220   0.094558
    12  O   -0.020913   0.270868  -0.476108   0.270675   0.094558   8.180213
    13  Br  -0.062455  -0.142370   0.299870   0.031991  -0.121183   0.007021
    14  O    0.002018  -0.085854  -0.088007   0.040880   0.452437  -0.090730
    15  H   -0.014812  -0.004712  -0.011816  -0.000965  -0.003444   0.000793
    16  H   -0.038454  -0.022218  -0.005827   0.022993  -0.004521  -0.000245
    17  H   -0.004638   0.003073  -0.000044  -0.002012  -0.000175   0.000041
    18  H    0.001168  -0.004316   0.002232   0.001521  -0.000129  -0.000050
    19  H   -0.006931  -0.002270   0.002802   0.003389  -0.000712   0.000001
    20  H    0.415153   0.216793  -0.235029  -0.071916   0.031593  -0.004073
    21  H   -0.002051  -0.069790  -0.040400   0.419495  -0.014106  -0.049407
    22  H    0.017846   0.157737  -0.063416   0.200057   0.051246  -0.066891
             13         14         15         16         17         18
     1  C   -0.006223   0.000912   0.529494  -0.072962   0.034779  -0.003752
     2  C    0.042801  -0.001224  -0.026906  -0.058349   0.024293   0.023689
     3  C    0.003393   0.001162  -0.067503   0.568572  -0.091578  -0.009506
     4  C   -0.000898   0.000065   0.015875  -0.087773   0.412939  -0.075373
     5  C   -0.000444   0.000078   0.003927   0.005544  -0.060012   0.467796
     6  C   -0.006080   0.000214  -0.107261   0.011466  -0.004739  -0.070811
     7  N   -0.062455   0.002018  -0.014812  -0.038454  -0.004638   0.001168
     8  C   -0.142370  -0.085854  -0.004712  -0.022218   0.003073  -0.004316
     9  C    0.299870  -0.088007  -0.011816  -0.005827  -0.000044   0.002232
    10  C    0.031991   0.040880  -0.000965   0.022993  -0.002012   0.001521
    11  C   -0.121183   0.452437  -0.003444  -0.004521  -0.000175  -0.000129
    12  O    0.007021  -0.090730   0.000793  -0.000245   0.000041  -0.000050
    13  Br  35.034191  -0.008548   0.001173   0.001160  -0.000003  -0.000031
    14  O   -0.008548   8.087483   0.000131   0.000021  -0.000002   0.000001
    15  H    0.001173   0.000131   0.529552  -0.003000   0.001647   0.000122
    16  H    0.001160   0.000021  -0.003000   0.530053  -0.015767   0.000186
    17  H   -0.000003  -0.000002   0.001647  -0.015767   0.529904  -0.013872
    18  H   -0.000031   0.000001   0.000122   0.000186  -0.013872   0.539119
    19  H   -0.000014  -0.000010  -0.016258   0.001866  -0.000572  -0.014042
    20  H    0.016754   0.000149   0.000071  -0.002332  -0.000314   0.000081
    21  H    0.002608  -0.000054   0.000730  -0.000705  -0.000579  -0.000149
    22  H   -0.001194   0.003140  -0.004187  -0.000858   0.000117   0.000046
             19         20         21         22
     1  C   -0.073078   0.009708  -0.033924   0.031591
     2  C    0.018495  -0.128406   0.103394  -0.092131
     3  C    0.037472  -0.028675   0.006524  -0.008921
     4  C   -0.001442   0.007173  -0.011275   0.009676
     5  C   -0.069126   0.016317  -0.004517   0.010552
     6  C    0.400788   0.030184  -0.018934   0.022725
     7  N   -0.006931   0.415153  -0.002051   0.017846
     8  C   -0.002270   0.216793  -0.069790   0.157737
     9  C    0.002802  -0.235029  -0.040400  -0.063416
    10  C    0.003389  -0.071916   0.419495   0.200057
    11  C   -0.000712   0.031593  -0.014106   0.051246
    12  O    0.000001  -0.004073  -0.049407  -0.066891
    13  Br  -0.000014   0.016754   0.002608  -0.001194
    14  O   -0.000010   0.000149  -0.000054   0.003140
    15  H   -0.016258   0.000071   0.000730  -0.004187
    16  H    0.001866  -0.002332  -0.000705  -0.000858
    17  H   -0.000572  -0.000314  -0.000579   0.000117
    18  H   -0.014042   0.000081  -0.000149   0.000046
    19  H    0.532592  -0.000814   0.000619  -0.002035
    20  H   -0.000814   0.405407  -0.004877   0.007531
    21  H    0.000619  -0.004877   0.614447  -0.097351
    22  H   -0.002035   0.007531  -0.097351   0.632124
 Mulliken atomic charges:
              1
     1  C    0.103780
     2  C   -0.485459
     3  C    0.134337
     4  C   -0.125582
     5  C   -0.351950
     6  C   -0.119939
     7  N    0.123262
     8  C   -0.589300
     9  C    0.343457
    10  C   -0.191036
    11  C    0.086286
    12  O   -0.115851
    13  Br  -0.091519
    14  O   -0.314262
    15  H    0.177347
    16  H    0.171148
    17  H    0.187515
    18  H    0.156068
    19  H    0.189278
    20  H    0.319520
    21  H    0.200303
    22  H    0.192596
 Sum of Mulliken atomic charges =   0.00000
 Mulliken charges with hydrogens summed into heavy atoms:
              1
     1  C    0.281128
     2  C   -0.485459
     3  C    0.305486
     4  C    0.061933
     5  C   -0.195882
     6  C    0.069339
     7  N    0.442782
     8  C   -0.589300
     9  C    0.343457
    10  C    0.201864
    11  C    0.086286
    12  O   -0.115851
    13  Br  -0.091519
    14  O   -0.314262
 Sum of Mulliken charges with hydrogens summed into heavy atoms =   0.00000
 Electronic spatial extent (au):  <R**2>=           4424.8529
 Charge=              0.0000 electrons
 Dipole moment (field-independent basis, Debye):
    X=             -7.8112    Y=             -2.5787    Z=              0.2338  Tot=              8.2291
 Quadrupole moment (field-independent basis, Debye-Ang):
   XX=            -99.1900   YY=            -99.5025   ZZ=            -88.7161
   XY=            -11.5569   XZ=              1.6454   YZ=              3.5251
 Traceless Quadrupole moment (field-independent basis, Debye-Ang):
   XX=             -3.3871   YY=             -3.6996   ZZ=              7.0868
   XY=            -11.5569   XZ=              1.6454   YZ=              3.5251
 Octapole moment (field-independent basis, Debye-Ang**2):
  XXX=            -33.9510  YYY=            -58.7005  ZZZ=              1.6159  XYY=             16.1399
  XXY=            -41.8466  XXZ=              2.4940  XZZ=             17.8740  YZZ=             -7.2828
  YYZ=              3.2609  XYZ=             -7.0109
 Hexadecapole moment (field-independent basis, Debye-Ang**3):
 XXXX=          -4085.4771 YYYY=           -959.8779 ZZZZ=           -317.4905 XXXY=           -253.8421
 XXXZ=             38.6738 YYYX=           -172.0388 YYYZ=             -1.4082 ZZZX=              6.8316
 ZZZY=              6.8958 XXYY=           -962.8281 XXZZ=           -720.0051 YYZZ=           -203.9923
 XXYZ=             44.9429 YYXZ=             13.7712 ZZXY=            -25.0902
 N-N= 1.135464018303D+03 E-N=-9.802099318645D+03  KE= 3.160505821629D+03
 No NMR shielding tensors so no spin-rotation constants.
 Leave Link  601 at Fri Jul 05 20:37:39 2019, MaxMem=  209715200 cpu:       0.0
 (Enter C:\G09W\l607.exe)
 ******************************Gaussian NBO Version 3.1******************************
             N A T U R A L   A T O M I C   O R B I T A L   A N D
          N A T U R A L   B O N D   O R B I T A L   A N A L Y S I S
 ******************************Gaussian NBO Version 3.1******************************
       /RESON  / : Allow strongly delocalized NBO set

 Analyzing the SCF density

 Job title: 8f.log                                                          

 Storage needed:    458184 in NPA,    610102 in NBO ( 209713709 available)


 NATURAL POPULATIONS:  Natural atomic orbital occupancies 
                                                          
   NAO  Atom  No  lang   Type(AO)    Occupancy      Energy
 ----------------------------------------------------------
     1    C    1  S      Cor( 1S)     1.99903     -10.05395
     2    C    1  S      Val( 2S)     0.94507      -0.17943
     3    C    1  S      Ryd( 4S)     0.00138       0.91131
     4    C    1  S      Ryd( 3S)     0.00009       0.59721
     5    C    1  S      Ryd( 5S)     0.00001      23.16792
     6    C    1  px     Val( 2p)     1.10109      -0.08127
     7    C    1  px     Ryd( 4p)     0.00430       0.99980
     8    C    1  px     Ryd( 3p)     0.00027       0.46043
     9    C    1  px     Ryd( 5p)     0.00013       3.01796
    10    C    1  py     Val( 2p)     1.01151      -0.13167
    11    C    1  py     Ryd( 4p)     0.00180       0.58749
    12    C    1  py     Ryd( 3p)     0.00031       0.36191
    13    C    1  py     Ryd( 5p)     0.00004       2.73857
    14    C    1  pz     Val( 2p)     1.12989      -0.08580
    15    C    1  pz     Ryd( 4p)     0.00475       0.99529
    16    C    1  pz     Ryd( 3p)     0.00022       0.47733
    17    C    1  pz     Ryd( 5p)     0.00008       2.99524
    18    C    1  dxy    Ryd( 3d)     0.00050       1.78332
    19    C    1  dxz    Ryd( 3d)     0.00079       2.41716
    20    C    1  dyz    Ryd( 3d)     0.00048       1.87534
    21    C    1  dx2y2  Ryd( 3d)     0.00049       2.18384
    22    C    1  dz2    Ryd( 3d)     0.00058       2.21577

    23    C    2  S      Cor( 1S)     1.99891     -10.10363
    24    C    2  S      Val( 2S)     0.83607      -0.14768
    25    C    2  S      Ryd( 4S)     0.00125       0.86756
    26    C    2  S      Ryd( 3S)     0.00009       0.67054
    27    C    2  S      Ryd( 5S)     0.00002      23.04712
    28    C    2  px     Val( 2p)     0.87424      -0.05584
    29    C    2  px     Ryd( 4p)     0.00648       1.26073
    30    C    2  px     Ryd( 3p)     0.00014       0.95158
    31    C    2  px     Ryd( 5p)     0.00011       2.76509
    32    C    2  py     Val( 2p)     1.05238      -0.14131
    33    C    2  py     Ryd( 3p)     0.00400       0.69347
    34    C    2  py     Ryd( 4p)     0.00010       0.71699
    35    C    2  py     Ryd( 5p)     0.00004       2.52979
    36    C    2  pz     Val( 2p)     1.09113      -0.09857
    37    C    2  pz     Ryd( 4p)     0.00301       0.98461
    38    C    2  pz     Ryd( 3p)     0.00029       0.82090
    39    C    2  pz     Ryd( 5p)     0.00018       2.70440
    40    C    2  dxy    Ryd( 3d)     0.00058       1.89210
    41    C    2  dxz    Ryd( 3d)     0.00152       2.49062
    42    C    2  dyz    Ryd( 3d)     0.00057       1.90760
    43    C    2  dx2y2  Ryd( 3d)     0.00089       2.11496
    44    C    2  dz2    Ryd( 3d)     0.00083       2.20486

    45    C    3  S      Cor( 1S)     1.99903     -10.05378
    46    C    3  S      Val( 2S)     0.94497      -0.17909
    47    C    3  S      Ryd( 4S)     0.00147       0.89835
    48    C    3  S      Ryd( 3S)     0.00010       0.52690
    49    C    3  S      Ryd( 5S)     0.00001      23.17535
    50    C    3  px     Val( 2p)     1.09882      -0.08038
    51    C    3  px     Ryd( 4p)     0.00425       1.01897
    52    C    3  px     Ryd( 3p)     0.00027       0.45165
    53    C    3  px     Ryd( 5p)     0.00012       3.00390
    54    C    3  py     Val( 2p)     1.02166      -0.13103
    55    C    3  py     Ryd( 4p)     0.00196       0.62630
    56    C    3  py     Ryd( 3p)     0.00035       0.36544
    57    C    3  py     Ryd( 5p)     0.00002       2.73157
    58    C    3  pz     Val( 2p)     1.12011      -0.08607
    59    C    3  pz     Ryd( 4p)     0.00463       0.99835
    60    C    3  pz     Ryd( 3p)     0.00022       0.41541
    61    C    3  pz     Ryd( 5p)     0.00009       2.97423
    62    C    3  dxy    Ryd( 3d)     0.00053       1.78911
    63    C    3  dxz    Ryd( 3d)     0.00074       2.41484
    64    C    3  dyz    Ryd( 3d)     0.00049       1.87034
    65    C    3  dx2y2  Ryd( 3d)     0.00045       2.18637
    66    C    3  dz2    Ryd( 3d)     0.00060       2.21310

    67    C    4  S      Cor( 1S)     1.99915     -10.05553
    68    C    4  S      Val( 2S)     0.94697      -0.18298
    69    C    4  S      Ryd( 3S)     0.00138       0.84372
    70    C    4  S      Ryd( 4S)     0.00011       0.95277
    71    C    4  S      Ryd( 5S)     0.00001      22.70266
    72    C    4  px     Val( 2p)     1.08606      -0.07223
    73    C    4  px     Ryd( 4p)     0.00483       0.87833
    74    C    4  px     Ryd( 3p)     0.00033       0.38982
    75    C    4  px     Ryd( 5p)     0.00013       3.03833
    76    C    4  py     Val( 2p)     1.00398      -0.12661
    77    C    4  py     Ryd( 4p)     0.00162       0.56521
    78    C    4  py     Ryd( 3p)     0.00027       0.30198
    79    C    4  py     Ryd( 5p)     0.00003       2.71771
    80    C    4  pz     Val( 2p)     1.13407      -0.08241
    81    C    4  pz     Ryd( 4p)     0.00589       0.97164
    82    C    4  pz     Ryd( 3p)     0.00020       0.43785
    83    C    4  pz     Ryd( 5p)     0.00006       2.99308
    84    C    4  dxy    Ryd( 3d)     0.00052       1.78910
    85    C    4  dxz    Ryd( 3d)     0.00073       2.38589
    86    C    4  dyz    Ryd( 3d)     0.00044       1.87307
    87    C    4  dx2y2  Ryd( 3d)     0.00048       2.16479
    88    C    4  dz2    Ryd( 3d)     0.00060       2.18541

    89    C    5  S      Cor( 1S)     1.99915     -10.05391
    90    C    5  S      Val( 2S)     0.94813      -0.18180
    91    C    5  S      Ryd( 3S)     0.00130       0.85237
    92    C    5  S      Ryd( 4S)     0.00008       1.28225
    93    C    5  S      Ryd( 5S)     0.00000      22.42612
    94    C    5  px     Val( 2p)     1.17301      -0.07463
    95    C    5  px     Ryd( 4p)     0.00649       1.08229
    96    C    5  px     Ryd( 3p)     0.00015       0.45970
    97    C    5  px     Ryd( 5p)     0.00006       3.06219
    98    C    5  py     Val( 2p)     0.99933      -0.12514
    99    C    5  py     Ryd( 4p)     0.00161       0.55292
   100    C    5  py     Ryd( 3p)     0.00029       0.29722
   101    C    5  py     Ryd( 5p)     0.00003       2.71017
   102    C    5  pz     Val( 2p)     1.05452      -0.07910
   103    C    5  pz     Ryd( 4p)     0.00404       0.75350
   104    C    5  pz     Ryd( 3p)     0.00050       0.34543
   105    C    5  pz     Ryd( 5p)     0.00013       2.98286
   106    C    5  dxy    Ryd( 3d)     0.00045       1.75312
   107    C    5  dxz    Ryd( 3d)     0.00063       2.45725
   108    C    5  dyz    Ryd( 3d)     0.00048       1.91921
   109    C    5  dx2y2  Ryd( 3d)     0.00057       2.06534
   110    C    5  dz2    Ryd( 3d)     0.00065       2.20666

   111    C    6  S      Cor( 1S)     1.99915     -10.05553
   112    C    6  S      Val( 2S)     0.94671      -0.18289
   113    C    6  S      Ryd( 4S)     0.00140       0.84014
   114    C    6  S      Ryd( 3S)     0.00012       0.78584
   115    C    6  S      Ryd( 5S)     0.00001      22.87375
   116    C    6  px     Val( 2p)     1.08350      -0.07254
   117    C    6  px     Ryd( 4p)     0.00478       0.86685
   118    C    6  px     Ryd( 3p)     0.00033       0.38867
   119    C    6  px     Ryd( 5p)     0.00014       3.04297
   120    C    6  py     Val( 2p)     1.01291      -0.12692
   121    C    6  py     Ryd( 4p)     0.00179       0.59451
   122    C    6  py     Ryd( 3p)     0.00029       0.30741
   123    C    6  py     Ryd( 5p)     0.00002       2.71928
   124    C    6  pz     Val( 2p)     1.12903      -0.08234
   125    C    6  pz     Ryd( 4p)     0.00582       0.96407
   126    C    6  pz     Ryd( 3p)     0.00022       0.41956
   127    C    6  pz     Ryd( 5p)     0.00007       2.99941
   128    C    6  dxy    Ryd( 3d)     0.00053       1.78728
   129    C    6  dxz    Ryd( 3d)     0.00071       2.40242
   130    C    6  dyz    Ryd( 3d)     0.00047       1.85353
   131    C    6  dx2y2  Ryd( 3d)     0.00048       2.15365
   132    C    6  dz2    Ryd( 3d)     0.00059       2.20370

   133    N    7  S      Cor( 1S)     1.99924     -14.19323
   134    N    7  S      Val( 2S)     1.20146      -0.53887
   135    N    7  S      Ryd( 4S)     0.00063       1.30688
   136    N    7  S      Ryd( 3S)     0.00011       1.04085
   137    N    7  S      Ryd( 5S)     0.00000      35.34590
   138    N    7  px     Val( 2p)     1.28688      -0.25900
   139    N    7  px     Ryd( 4p)     0.00291       0.91490
   140    N    7  px     Ryd( 3p)     0.00101       0.72094
   141    N    7  px     Ryd( 5p)     0.00006       4.03517
   142    N    7  py     Val( 2p)     1.37254      -0.26943
   143    N    7  py     Ryd( 4p)     0.00316       0.72755
   144    N    7  py     Ryd( 3p)     0.00094       0.48973
   145    N    7  py     Ryd( 5p)     0.00008       4.06507
   146    N    7  pz     Val( 2p)     1.72044      -0.28413
   147    N    7  pz     Ryd( 4p)     0.00977       0.53133
   148    N    7  pz     Ryd( 3p)     0.00083       0.52012
   149    N    7  pz     Ryd( 5p)     0.00001       3.86009
   150    N    7  dxy    Ryd( 3d)     0.00090       2.91799
   151    N    7  dxz    Ryd( 3d)     0.00041       2.34131
   152    N    7  dyz    Ryd( 3d)     0.00019       2.20012
   153    N    7  dx2y2  Ryd( 3d)     0.00069       2.88661
   154    N    7  dz2    Ryd( 3d)     0.00063       2.62243

   155    C    8  S      Cor( 1S)     1.99871     -10.10673
   156    C    8  S      Val( 2S)     0.82765      -0.14490
   157    C    8  S      Ryd( 3S)     0.00172       0.77047
   158    C    8  S      Ryd( 4S)     0.00010       3.21937
   159    C    8  S      Ryd( 5S)     0.00003      20.45179
   160    C    8  px     Val( 2p)     1.04410      -0.09760
   161    C    8  px     Ryd( 4p)     0.00390       1.00020
   162    C    8  px     Ryd( 3p)     0.00018       0.64725
   163    C    8  px     Ryd( 5p)     0.00020       3.21781
   164    C    8  py     Val( 2p)     0.97387      -0.08422
   165    C    8  py     Ryd( 4p)     0.00726       1.08976
   166    C    8  py     Ryd( 3p)     0.00012       0.58938
   167    C    8  py     Ryd( 5p)     0.00012       2.99579
   168    C    8  pz     Val( 2p)     0.93078      -0.14323
   169    C    8  pz     Ryd( 4p)     0.00135       0.59445
   170    C    8  pz     Ryd( 3p)     0.00081       0.36461
   171    C    8  pz     Ryd( 5p)     0.00003       2.71876
   172    C    8  dxy    Ryd( 3d)     0.00101       2.45638
   173    C    8  dxz    Ryd( 3d)     0.00230       1.67161
   174    C    8  dyz    Ryd( 3d)     0.00109       1.69710
   175    C    8  dx2y2  Ryd( 3d)     0.00082       2.64516
   176    C    8  dz2    Ryd( 3d)     0.00049       2.06058

   177    C    9  S      Cor( 1S)     1.99828     -10.09168
   178    C    9  S      Val( 2S)     0.96875      -0.23175
   179    C    9  S      Ryd( 3S)     0.00213       0.70168
   180    C    9  S      Ryd( 4S)     0.00098       0.73463
   181    C    9  S      Ryd( 5S)     0.00001      23.36304
   182    C    9  px     Val( 2p)     1.06559      -0.12842
   183    C    9  px     Ryd( 4p)     0.00584       0.91546
   184    C    9  px     Ryd( 3p)     0.00048       0.77772
   185    C    9  px     Ryd( 5p)     0.00025       3.03534
   186    C    9  py     Val( 2p)     1.03606      -0.16737
   187    C    9  py     Ryd( 4p)     0.00522       1.08504
   188    C    9  py     Ryd( 3p)     0.00027       0.98532
   189    C    9  py     Ryd( 5p)     0.00020       2.91006
   190    C    9  pz     Val( 2p)     1.24286      -0.16240
   191    C    9  pz     Ryd( 4p)     0.00149       0.63404
   192    C    9  pz     Ryd( 3p)     0.00078       0.37103
   193    C    9  pz     Ryd( 5p)     0.00002       2.61876
   194    C    9  dxy    Ryd( 3d)     0.00122       2.21917
   195    C    9  dxz    Ryd( 3d)     0.00097       1.63629
   196    C    9  dyz    Ryd( 3d)     0.00091       1.56952
   197    C    9  dx2y2  Ryd( 3d)     0.00128       2.45970
   198    C    9  dz2    Ryd( 3d)     0.00070       2.10498

   199    C   10  S      Cor( 1S)     1.99911     -10.12790
   200    C   10  S      Val( 2S)     1.00062      -0.25913
   201    C   10  S      Ryd( 4S)     0.00235       1.04845
   202    C   10  S      Ryd( 3S)     0.00007       0.86684
   203    C   10  S      Ryd( 5S)     0.00001      23.10743
   204    C   10  px     Val( 2p)     0.85983      -0.11190
   205    C   10  px     Ryd( 3p)     0.00315       0.69257
   206    C   10  px     Ryd( 4p)     0.00016       0.87907
   207    C   10  px     Ryd( 5p)     0.00010       2.44956
   208    C   10  py     Val( 2p)     0.96148      -0.11595
   209    C   10  py     Ryd( 3p)     0.00381       0.73863
   210    C   10  py     Ryd( 4p)     0.00017       0.94331
   211    C   10  py     Ryd( 5p)     0.00019       2.23244
   212    C   10  pz     Val( 2p)     1.19771      -0.13426
   213    C   10  pz     Ryd( 3p)     0.00082       0.72067
   214    C   10  pz     Ryd( 4p)     0.00023       0.96055
   215    C   10  pz     Ryd( 5p)     0.00007       2.38821
   216    C   10  dxy    Ryd( 3d)     0.00157       2.11119
   217    C   10  dxz    Ryd( 3d)     0.00199       2.11257
   218    C   10  dyz    Ryd( 3d)     0.00099       1.82316
   219    C   10  dx2y2  Ryd( 3d)     0.00189       2.17850
   220    C   10  dz2    Ryd( 3d)     0.00121       2.14145

   221    C   11  S      Cor( 1S)     1.99913     -10.17076
   222    C   11  S      Val( 2S)     0.74054      -0.10359
   223    C   11  S      Ryd( 4S)     0.00901       0.73873
   224    C   11  S      Ryd( 3S)     0.00179       0.68342
   225    C   11  S      Ryd( 5S)     0.00007      22.30116
   226    C   11  px     Val( 2p)     0.76611      -0.00322
   227    C   11  px     Ryd( 4p)     0.01592       1.25566
   228    C   11  px     Ryd( 3p)     0.00046       0.70614
   229    C   11  px     Ryd( 5p)     0.00017       2.39024
   230    C   11  py     Val( 2p)     0.88136      -0.05198
   231    C   11  py     Ryd( 4p)     0.00894       1.21181
   232    C   11  py     Ryd( 3p)     0.00040       0.55321
   233    C   11  py     Ryd( 5p)     0.00016       2.21023
   234    C   11  pz     Val( 2p)     0.80595      -0.12194
   235    C   11  pz     Ryd( 4p)     0.00155       0.77089
   236    C   11  pz     Ryd( 3p)     0.00051       0.46083
   237    C   11  pz     Ryd( 5p)     0.00012       2.34481
   238    C   11  dxy    Ryd( 3d)     0.00514       2.65989
   239    C   11  dxz    Ryd( 3d)     0.00575       1.66621
   240    C   11  dyz    Ryd( 3d)     0.00155       1.59197
   241    C   11  dx2y2  Ryd( 3d)     0.00319       2.53650
   242    C   11  dz2    Ryd( 3d)     0.00072       2.02896

   243    O   12  S      Cor( 1S)     1.99972     -18.96150
   244    O   12  S      Val( 2S)     1.61725      -0.89130
   245    O   12  S      Ryd( 3S)     0.00283       1.06750
   246    O   12  S      Ryd( 4S)     0.00020       1.15339
   247    O   12  S      Ryd( 5S)     0.00000      49.66207
   248    O   12  px     Val( 2p)     1.35696      -0.31691
   249    O   12  px     Ryd( 4p)     0.00215       0.93003
[...]
   123. RY*(   9) C   4                  0.00004     1.95197   
   124. RY*(  10) C   4                  0.00002     2.12573   
   125. RY*(  11) C   4                  0.00000     0.57920   
   126. RY*(  12) C   4                  0.00001     1.98279   
   127. RY*(  13) C   4                  0.00000    19.66848   
   128. RY*(  14) C   4                  0.00000     1.40264   
   129. RY*(  15) C   4                  0.00000     2.31700   
   130. RY*(  16) C   4                  0.00000     2.38056   
   131. RY*(  17) C   4                  0.00000     2.67597   
   132. RY*(   1) C   5                  0.00591     1.12423   
   133. RY*(   2) C   5                  0.00215     1.25837   
   134. RY*(   3) C   5                  0.00107     0.44836   
   135. RY*(   4) C   5                  0.00052     1.63604   
   136. RY*(   5) C   5                  0.00036     0.83251   
   137. RY*(   6) C   5                  0.00029     1.14425   
   138. RY*(   7) C   5                  0.00011     2.50219   
   139. RY*(   8) C   5                  0.00007     2.99961   
   140. RY*(   9) C   5                  0.00003     1.85616   
   141. RY*(  10) C   5                  0.00003     1.46771   
   142. RY*(  11) C   5                  0.00000     0.36805   
   143. RY*(  12) C   5                  0.00000     2.54478   
   144. RY*(  13) C   5                  0.00000     2.38794   
   145. RY*(  14) C   5                  0.00000     1.52797   
   146. RY*(  15) C   5                  0.00000     1.63008   
   147. RY*(  16) C   5                  0.00001     1.83666   
   148. RY*(  17) C   5                  0.00000    21.56314   
   149. RY*(   1) C   6                  0.00604     1.07740   
   150. RY*(   2) C   6                  0.00223     1.25633   
   151. RY*(   3) C   6                  0.00074     0.79917   
   152. RY*(   4) C   6                  0.00065     1.34011   
   153. RY*(   5) C   6                  0.00040     1.00945   
   154. RY*(   6) C   6                  0.00018     1.35299   
   155. RY*(   7) C   6                  0.00011     3.41467   
   156. RY*(   8) C   6                  0.00007     1.69686   
   157. RY*(   9) C   6                  0.00004     2.28578   
   158. RY*(  10) C   6                  0.00003     0.77580   
   159. RY*(  11) C   6                  0.00001     0.97028   
   160. RY*(  12) C   6                  0.00001     2.64928   
   161. RY*(  13) C   6                  0.00001     1.30924   
   162. RY*(  14) C   6                  0.00001     2.55855   
   163. RY*(  15) C   6                  0.00001     1.95481   
   164. RY*(  16) C   6                  0.00000    21.24787   
   165. RY*(  17) C   6                  0.00000     1.45579   
   166. RY*(   1) N   7                  0.00672     0.78426   
   167. RY*(   2) N   7                  0.00411     0.82147   
   168. RY*(   3) N   7                  0.00197     0.63814   
   169. RY*(   4) N   7                  0.00100     0.84697   
   170. RY*(   5) N   7                  0.00074     1.37874   
   171. RY*(   6) N   7                  0.00050     1.37788   
   172. RY*(   7) N   7                  0.00035     1.74480   
   173. RY*(   8) N   7                  0.00023     1.09199   
   174. RY*(   9) N   7                  0.00011     2.27290   
   175. RY*(  10) N   7                  0.00005     2.12349   
   176. RY*(  11) N   7                  0.00005     2.23235   
   177. RY*(  12) N   7                  0.00003     3.89025   
   178. RY*(  13) N   7                  0.00002     2.34503   
   179. RY*(  14) N   7                  0.00000    35.23354   
   180. RY*(  15) N   7                  0.00001     2.10583   
   181. RY*(  16) N   7                  0.00000     3.84010   
   182. RY*(  17) N   7                  0.00000     3.80322   
   183. RY*(   1) C   8                  0.00631     1.13606   
   184. RY*(   2) C   8                  0.00379     1.24628   
   185. RY*(   3) C   8                  0.00299     1.35105   
   186. RY*(   4) C   8                  0.00123     0.89396   
   187. RY*(   5) C   8                  0.00080     1.05890   
   188. RY*(   6) C   8                  0.00043     1.82609   
   189. RY*(   7) C   8                  0.00032     1.49436   
   190. RY*(   8) C   8                  0.00024     2.58885   
   191. RY*(   9) C   8                  0.00022     1.23531   
   192. RY*(  10) C   8                  0.00017     3.03799   
   193. RY*(  11) C   8                  0.00009     2.93289   
   194. RY*(  12) C   8                  0.00008     1.60551   
   195. RY*(  13) C   8                  0.00006     2.95661   
   196. RY*(  14) C   8                  0.00004     3.13675   
   197. RY*(  15) C   8                  0.00001     2.77951   
   198. RY*(  16) C   8                  0.00001     2.40014   
   199. RY*(  17) C   8                  0.00001    16.13915   
   200. RY*(   1) C   9                  0.00656     0.81270   
   201. RY*(   2) C   9                  0.00380     1.13003   
   202. RY*(   3) C   9                  0.00196     1.01482   
   203. RY*(   4) C   9                  0.00093     1.15457   
   204. RY*(   5) C   9                  0.00066     1.58016   
   205. RY*(   6) C   9                  0.00056     1.09627   
   206. RY*(   7) C   9                  0.00039     1.32078   
   207. RY*(   8) C   9                  0.00031     1.80119   
   208. RY*(   9) C   9                  0.00017     2.82379   
   209. RY*(  10) C   9                  0.00013     0.79853   
   210. RY*(  11) C   9                  0.00005     1.45761   
   211. RY*(  12) C   9                  0.00005     1.91237   
   212. RY*(  13) C   9                  0.00002     1.49845   
   213. RY*(  14) C   9                  0.00002     4.53991   
   214. RY*(  15) C   9                  0.00000     2.68921   
   215. RY*(  16) C   9                  0.00001     2.63885   
   216. RY*(  17) C   9                  0.00000    19.56934   
   217. RY*(   1) C  10                  0.00436     0.98667   
   218. RY*(   2) C  10                  0.00199     0.82155   
   219. RY*(   3) C  10                  0.00194     1.72932   
   220. RY*(   4) C  10                  0.00079     1.45695   
   221. RY*(   5) C  10                  0.00057     1.05694   
   222. RY*(   6) C  10                  0.00047     1.69012   
   223. RY*(   7) C  10                  0.00031     0.87230   
   224. RY*(   8) C  10                  0.00018     1.48492   
   225. RY*(   9) C  10                  0.00013     2.56105   
   226. RY*(  10) C  10                  0.00006     2.14179   
   227. RY*(  11) C  10                  0.00007     0.61621   
   228. RY*(  12) C  10                  0.00004     1.42748   
   229. RY*(  13) C  10                  0.00004     2.16587   
   230. RY*(  14) C  10                  0.00001     1.15743   
   231. RY*(  15) C  10                  0.00000    22.19529   
   232. RY*(  16) C  10                  0.00000     3.12415   
   233. RY*(  17) C  10                  0.00001     1.80360   
   234. RY*(   1) C  11                  0.01517     1.12810   
   235. RY*(   2) C  11                  0.01169     1.60212   
   236. RY*(   3) C  11                  0.00695     1.60386   
   237. RY*(   4) C  11                  0.00382     1.74811   
   238. RY*(   5) C  11                  0.00232     1.68120   
   239. RY*(   6) C  11                  0.00164     1.36820   
   240. RY*(   7) C  11                  0.00073     1.61441   
   241. RY*(   8) C  11                  0.00039     0.71432   
   242. RY*(   9) C  11                  0.00016     2.67851   
   243. RY*(  10) C  11                  0.00009     2.62180   
   244. RY*(  11) C  11                  0.00003     2.23475   
   245. RY*(  12) C  11                  0.00002     1.91728   
   246. RY*(  13) C  11                  0.00001     0.77751   
   247. RY*(  14) C  11                  0.00000     0.51570   
   248. RY*(  15) C  11                  0.00001     1.32200   
   249. RY*(  16) C  11                  0.00001    20.14842   
   250. RY*(  17) C  11                  0.00001     2.64133   
   251. RY*(   1) O  12                  0.00381     0.46586   
   252. RY*(   2) O  12                  0.00213     0.91891   
   253. RY*(   3) O  12                  0.00146     1.00100   
   254. RY*(   4) O  12                  0.00070     1.16547   
   255. RY*(   5) O  12                  0.00054     1.18641   
   256. RY*(   6) O  12                  0.00020     1.36565   
   257. RY*(   7) O  12                  0.00014     2.86300   
   258. RY*(   8) O  12                  0.00006     1.65617   
   259. RY*(   9) O  12                  0.00005     1.59653   
   260. RY*(  10) O  12                  0.00004     3.57532   
   261. RY*(  11) O  12                  0.00001     2.09937   
   262. RY*(  12) O  12                  0.00001     4.60847   
   263. RY*(  13) O  12                  0.00001     4.59795   
   264. RY*(  14) O  12                  0.00001     2.92556   
   265. RY*(  15) O  12                  0.00000     4.88564   
   266. RY*(  16) O  12                  0.00000    49.26817   
   267. RY*(  17) O  12                  0.00001     3.14231   
   268. RY*(   1)Br  13                  0.00422     0.51740   
   269. RY*(   2)Br  13                  0.00176     0.54973   
   270. RY*(   3)Br  13                  0.00090     0.55024   
   271. RY*(   4)Br  13                  0.00035     0.57688   
   272. RY*(   5)Br  13                  0.00010     0.66091   
   273. RY*(   6)Br  13                  0.00008     0.70659   
   274. RY*(   7)Br  13                  0.00007     0.71971   
   275. RY*(   8)Br  13                  0.00006     1.74824   
   276. RY*(   9)Br  13                  0.00005     1.05888   
   277. RY*(  10)Br  13                  0.00003     0.70322   
   278. RY*(  11)Br  13                  0.00001     1.47252   
   279. RY*(  12)Br  13                  0.00001     2.61485   
   280. RY*(  13)Br  13                  0.00002     0.37883   
   281. RY*(  14)Br  13                  0.00000    10.93964   
   282. RY*(  15)Br  13                  0.00000   285.28558   
   283. RY*(  16)Br  13                  0.00000     2.29450   
   284. RY*(  17)Br  13                  0.00001     0.53377   
   285. RY*(  18)Br  13                  0.00000     2.43974   
   286. RY*(  19)Br  13                  0.00000    11.38131   
   287. RY*(  20)Br  13                  0.00000   285.36956   
   288. RY*(  21)Br  13                  0.00000    11.31554   
   289. RY*(  22)Br  13                  0.00000     4.26361   
   290. RY*(  23)Br  13                  0.00000   285.35834   
   291. RY*(  24)Br  13                  0.00000     4.09515   
   292. RY*(  25)Br  13                  0.00000    77.40464   
   293. RY*(  26)Br  13                  0.00000     4.05170   
   294. RY*(  27)Br  13                  0.00000   983.29171   
   295. RY*(  28)Br  13                  0.00000     4.24411   
   296. RY*(  29)Br  13                  0.00000    12.96762   
   297. RY*(  30)Br  13                  0.00000     4.09241   
   298. RY*(   1) O  14                  0.00271     0.84308   
   299. RY*(   2) O  14                  0.00114     0.63874   
   300. RY*(   3) O  14                  0.00091     1.11707   
   301. RY*(   4) O  14                  0.00015     1.44958   
   302. RY*(   5) O  14                  0.00009     4.82026   
   303. RY*(   6) O  14                  0.00006     1.58717   
   304. RY*(   7) O  14                  0.00003     1.48690   
   305. RY*(   8) O  14                  0.00003     1.40098   
   306. RY*(   9) O  14                  0.00001     4.21419   
   307. RY*(  10) O  14                  0.00000     3.06443   
   308. RY*(  11) O  14                  0.00000    49.36646   
   309. RY*(  12) O  14                  0.00000     4.93794   
   310. RY*(  13) O  14                  0.00001     3.25928   
   311. RY*(  14) O  14                  0.00000     3.12235   
   312. RY*(  15) O  14                  0.00000     2.28756   
   313. RY*(  16) O  14                  0.00001     1.93107   
   314. RY*(  17) O  14                  0.00000     2.96437   
   315. RY*(   1) H  15                  0.00186     0.52094   
   316. RY*(   2) H  15                  0.00027     2.21404   
   317. RY*(   3) H  15                  0.00023     1.55594   
   318. RY*(   4) H  15                  0.00011     1.89402   
   319. RY*(   5) H  15                  0.00007     0.59928   
   320. RY*(   6) H  15                  0.00004     2.61124   
   321. RY*(   1) H  16                  0.00090     0.80115   
   322. RY*(   2) H  16                  0.00022     1.71101   
   323. RY*(   3) H  16                  0.00019     1.88397   
   324. RY*(   4) H  16                  0.00011     1.98431   
   325. RY*(   5) H  16                  0.00006     0.46596   
   326. RY*(   6) H  16                  0.00004     2.41159   
   327. RY*(   1) H  17                  0.00074     0.66147   
   328. RY*(   2) H  17                  0.00020     2.32206   
   329. RY*(   3) H  17                  0.00019     1.57854   
   330. RY*(   4) H  17                  0.00011     1.95436   
   331. RY*(   5) H  17                  0.00003     2.45695   
   332. RY*(   6) H  17                  0.00002     0.15963   
   333. RY*(   1) H  18                  0.00072     0.68768   
   334. RY*(   2) H  18                  0.00020     2.30579   
   335. RY*(   3) H  18                  0.00020     1.57966   
   336. RY*(   4) H  18                  0.00011     1.95637   
   337. RY*(   5) H  18                  0.00003     2.35934   
   338. RY*(   6) H  18                  0.00002     0.26275   
   339. RY*(   1) H  19                  0.00074     0.65572   
   340. RY*(   2) H  19                  0.00020     2.27777   
   341. RY*(   3) H  19                  0.00019     1.61013   
   342. RY*(   4) H  19                  0.00012     1.94939   
   343. RY*(   5) H  19                  0.00004     2.45693   
   344. RY*(   6) H  19                  0.00002     0.19955   
   345. RY*(   1) H  20                  0.00188     0.73865   
   346. RY*(   2) H  20                  0.00065     1.66043   
   347. RY*(   3) H  20                  0.00043     1.63470   
   348. RY*(   4) H  20                  0.00020     1.97433   
   349. RY*(   5) H  20                  0.00009     0.94257   
   350. RY*(   6) H  20                  0.00005     2.48632   
   351. RY*(   1) H  21                  0.00128     0.58720   
   352. RY*(   2) H  21                  0.00032     1.81064   
   353. RY*(   3) H  21                  0.00014     2.23982   
   354. RY*(   4) H  21                  0.00010     2.00677   
   355. RY*(   5) H  21                  0.00011     1.28744   
   356. RY*(   6) H  21                  0.00007     1.44362   
   357. RY*(   1) H  22                  0.00106     0.68164   
   358. RY*(   2) H  22                  0.00030     1.71030   
   359. RY*(   3) H  22                  0.00015     2.06885   
   360. RY*(   4) H  22                  0.00012     2.32731   
   361. RY*(   5) H  22                  0.00008     0.49808   
   362. RY*(   6) H  22                  0.00008     2.06987   
   363. BD*(   1) C   1 - C   2          0.02554     0.53605   
   364. BD*(   2) C   1 - C   2          0.39475    -0.00284  370(v),375(v),66(g),84(g)
                                                    381(r),100(v),378(v)
   365. BD*(   1) C   1 - C   6          0.01459     0.55449   
   366. BD*(   1) C   1 - H  15          0.01412     0.41689   
   367. BD*(   1) C   2 - C   3          0.02342     0.53442   
   368. BD*(   1) C   2 - N   7          0.02938     0.38142   
   369. BD*(   1) C   3 - C   4          0.01422     0.55808   
   370. BD*(   2) C   3 - C   4          0.32779     0.00534  375(v),364(v),100(g),117(g)
   371. BD*(   1) C   3 - H  16          0.01297     0.41013   
   372. BD*(   1) C   4 - C   5          0.01592     0.55680   
   373. BD*(   1) C   4 - H  17          0.01306     0.42486   
   374. BD*(   1) C   5 - C   6          0.01578     0.55885   
   375. BD*(   2) C   5 - C   6          0.33139     0.00882  370(v),364(v),134(g),151(g)
                                                    142(g)
   376. BD*(   1) C   5 - H  18          0.01333     0.42803   
   377. BD*(   1) C   6 - H  19          0.01305     0.42391   
   378. BD*(   1) N   7 - C   8          0.02855     0.45058   
   379. BD*(   1) N   7 - H  20          0.02305     0.35603   
   380. BD*(   1) C   8 - C   9          0.02399     0.58449   
   381. BD*(   2) C   8 - C   9          0.30963    -0.00621  390(v),202(g),387(v),386(v)
                                                    364(r),189(g)
   382. BD*(   1) C   8 - C  10          0.03125     0.35259   
   383. BD*(   1) C   9 - C  11          0.07830     0.43278   
   384. BD*(   1) C   9 -Br  13          0.03091     0.08604   
   385. BD*(   1) C  10 - O  12          0.01480     0.25729   
   386. BD*(   1) C  10 - H  21          0.02219     0.35789   
   387. BD*(   1) C  10 - H  22          0.02268     0.35894   
   388. BD*(   1) C  11 - O  12          0.12129     0.31020  385(g),382(v),235(g),380(v)
                                                    240(g),384(v)
   389. BD*(   1) C  11 - O  14          0.01292     0.63881   
   390. BD*(   2) C  11 - O  14          0.28551     0.01362  381(v),236(g),299(g),241(g)
                                                    311(g)
       -------------------------------
              Total Lewis  123.52798  ( 98.0381%)
        Valence non-Lewis    2.26438  (  1.7971%)
        Rydberg non-Lewis    0.20764  (  0.1648%)
       -------------------------------
            Total unit  1  126.00000  (100.0000%)
           Charge unit  1    0.00000
 Leave Link  607 at Fri Jul 05 22:15:03 2019, MaxMem=  209715200 cpu:       4.0
 (Enter C:\G09W\l9999.exe)
 1|1|UNPC-CCSC-2005544|FOpt|RB3LYP|6-311++G(d,p)|C10H8Br1N1O2|EDUARDO.M
 ELO|05-Jul-2019|0||#p opt b3lyp/6-311++g(d,p) pop=nbo geom=connectivit
 y||8f.log||0,1|C,-2.7457821251,0.4552346485,0.8552976604|C,-2.11043153
 59,-0.357123579,-0.0894357964|C,-2.8859489495,-1.0828997765,-1.0026409
 902|C,-4.2728583498,-0.9857532771,-0.9778426019|C,-4.9053885857,-0.153
 971275,-0.0545936526|C,-4.1348413609,0.562945545,0.8575498966|N,-0.704
 9038359,-0.5187782642,-0.129576118|C,0.2686303741,0.4173580811,0.01291
 70416|C,1.6017170657,0.2379230034,-0.1425983455|C,0.0520956819,1.87900
 39564,0.3244803384|C,2.3114502082,1.5061296975,0.0096702962|O,1.350124
 1881,2.4716183493,0.2790659323|Br,2.4564246517,-1.38342688,-0.57730563
 04|O,3.4760749772,1.7720083191,-0.0692745225|H,-2.1700026128,0.9742520
 246,1.609326377|H,-2.3966990864,-1.7137934725,-1.7372034706|H,-4.85910
 7068,-1.5538848627,-1.6908679426|H,-5.9855455803,-0.0723459984,-0.0415
 318149|H,-4.6147736957,1.1973241191,1.5939218084|H,-0.3753446604,-1.40
 82972433,-0.4837162358|H,-0.5969419236,2.3631371985,-0.4111648215|H,-0
 .360554777,2.0423926863,1.3219225918||Version=IA32W-G09RevA.02|State=1
 -A|HF=-3165.3832867|RMSD=5.045e-009|RMSF=6.173e-006|Dipole=-2.8353921,
 -0.9344757,-0.0197007|Quadrupole=-4.1522712,-0.1682579,4.3205291,-8.30
 37124,-0.4403423,3.5949103|PG=C01 [X(C10H8Br1N1O2)]||@


 THOSE WITH THE GOLD MAKE THE RULES.

             -- PETER'S GOLDEN RULE
 Job cpu time:  0 days  1 hours 43 minutes 25.0 seconds.
 File lengths (MBytes):  RWF=     96 Int=      0 D2E=      0 Chk=     10 Scr=      1
 Normal termination of Gaussian 09 at Fri Jul 05 22:15:03 2019.
