 Entering Link 1 = C:\G09W\l1.exe PID=      4468.
  
 Copyright (c) 1988,1990,1992,1993,1995,1998,2003,2009, Gaussian, Inc.
                  All Rights Reserved.
  
 This is part of the Gaussian(R) 09 program.  It is based on
 the Gaussian(R) 03 system (copyright 2003, Gaussian, Inc.),
 the Gaussian(R) 98 system (copyright 1998, Gaussian, Inc.),
 the Gaussian(R) 94 system (copyright 1995, Gaussian, Inc.),
 the Gaussian 92(TM) system (copyright 1992, Gaussian, Inc.),
 the Gaussian 90(TM) system (copyright 1990, Gaussian, Inc.),
 the Gaussian 88(TM) system (copyright 1988, Gaussian, Inc.),
 the Gaussian 86(TM) system (copyright 1986, Carnegie Mellon
 University), and the Gaussian 82(TM) system (copyright 1983,
 Carnegie Mellon University). Gaussian is a federally registered
 trademark of Gaussian, Inc.
  
 This software contains proprietary and confidential information,
 including trade secrets, belonging to Gaussian, Inc.
  
 This software is provided under written license and may be
 used, copied, transmitted, or stored only in accord with that
 written license.
  
 The following legend is applicable only to US Government
 contracts under FAR:
  
                    RESTRICTED RIGHTS LEGEND
  
 Use, reproduction and disclosure by the US Government is
 subject to restrictions as set forth in subparagraphs (a)
 and (c) of the Commercial Computer Software - Restricted
 Rights clause in FAR 52.227-19.
  
 Gaussian, Inc.
 340 Quinnipiac St., Bldg. 40, Wallingford CT 06492
  
  
 ---------------------------------------------------------------
 Warning -- This program may not be used in any manner that
 competes with the business of Gaussian, Inc. or will provide
 assistance to any competitor of Gaussian, Inc.  The licensee
 of this program is prohibited from giving any competitor of
 Gaussian, Inc. access to this program.  By using this program,
 the user acknowledges that Gaussian, Inc. is engaged in the
 business of creating and licensing software in the field of
 computational chemistry and represents and warrants to the
 licensee that it is not a competitor of Gaussian, Inc. and that
 it will not use this program in any manner prohibited above.
 ---------------------------------------------------------------
  

 Cite this work as:
 Gaussian 09, Revision A.02,
 M. J. Frisch, G. W. Trucks, H. B. Schlegel, G. E. Scuseria, 
 M. A. Robb, J. R. Cheeseman, G. Scalmani, V. Barone, B. Mennucci, 
 G. A. Petersson, H. Nakatsuji, M. Caricato, X. Li, H. P. Hratchian, 
 A. F. Izmaylov, J. Bloino, G. Zheng, J. L. Sonnenberg, M. Hada, 
 M. Ehara, K. Toyota, R. Fukuda, J. Hasegawa, M. Ishida, T. Nakajima, 
 Y. Honda, O. Kitao, H. Nakai, T. Vreven, J. A. Montgomery, Jr., 
 J. E. Peralta, F. Ogliaro, M. Bearpark, J. J. Heyd, E. Brothers, 
 K. N. Kudin, V. N. Staroverov, R. Kobayashi, J. Normand, 
 K. Raghavachari, A. Rendell, J. C. Burant, S. S. Iyengar, J. Tomasi, 
 M. Cossi, N. Rega, J. M. Millam, M. Klene, J. E. Knox, J. B. Cross, 
 V. Bakken, C. Adamo, J. Jaramillo, R. Gomperts, R. E. Stratmann, 
 O. Yazyev, A. J. Austin, R. Cammi, C. Pomelli, J. W. Ochterski, 
 R. L. Martin, K. Morokuma, V. G. Zakrzewski, G. A. Voth, 
 P. Salvador, J. J. Dannenberg, S. Dapprich, A. D. Daniels, 
 O. Farkas, J. B. Foresman, J. V. Ortiz, J. Cioslowski, 
 and D. J. Fox, Gaussian, Inc., Wallingford CT, 2009.
 
 ******************************************
 Gaussian 09:  IA32W-G09RevA.02 11-Jun-2009
                05-Jul-2019 
 ******************************************
 %nprocshared=4
 Will use up to    4 processors via shared memory.
 %mem=1600MB
 ----------------------------------------------------
 #p opt b3lyp/6-311++g(d,p) pop=nbo geom=connectivity
 ----------------------------------------------------
 1/14=-1,18=20,19=15,26=3,38=1,57=2/1,3;
 2/9=110,12=2,17=6,18=5,40=1/2;
 3/5=4,6=6,7=1111,11=2,16=1,25=1,30=1,71=1,74=-5/1,2,3;
 4//1;
 5/5=2,38=5/2;
 6/7=2,8=2,9=2,10=2,28=1/1,7;
 7//1,2,3,16;
 1/14=-1,18=20,19=15/3(2);
 2/9=110/2;
 99//99;
 2/9=110/2;
 3/5=4,6=6,7=1111,11=2,16=1,25=1,30=1,71=1,74=-5/1,2,3;
 4/5=5,16=3/1;
 5/5=2,38=5/2;
 7//1,2,3,16;
 1/14=-1,18=20,19=15/3(-5);
 2/9=110/2;
 6/7=2,8=2,9=2,10=2,19=2,28=1/1,7;
 99/9=1/99;
 Leave Link    1 at Fri Jul 05 12:15:22 2019, MaxMem=  209715200 cpu:       0.0
 (Enter C:\G09W\l101.exe)
 ------
 8g.log
 ------
 Symbolic Z-matrix:
 Charge =  0 Multiplicity = 1
 C                    -1.96116  -0.43275   1.32843 
 C                    -1.31351  -0.48189   0.09622 
 C                    -2.06137  -0.36215  -1.05826 
 C                    -3.43803  -0.18573  -1.00478 
 C                    -4.07386  -0.1331    0.22647 
 C                    -3.32414  -0.25924   1.39591 
 N                     0.09776  -0.67583   0.0289 
 C                     1.00715   0.31248   0.02083 
 C                     2.34004   0.24246  -0.02281 
 C                     0.63717   1.77289   0.05985 
 C                     2.90587   1.58855  -0.01614 
 O                     1.86457   2.45295   0.0333 
 Br                    3.37228  -1.31246  -0.08435 
 O                     4.02935   1.94703  -0.04574 
 O                    -5.3952    0.0333    0.39645 
 C                    -6.23546   0.16689  -0.71805 
 H                    -1.38593  -0.53513   2.23149 
 H                    -1.56883  -0.41032  -2.01324 
 H                    -3.98866  -0.09536  -1.92048 
 H                    -3.83453  -0.21936   2.33994 
 H                     0.45315  -1.60606   0.0107 
 H                     0.04038   2.05937  -0.7971 
 H                     0.09618   2.02679   0.96294 
 H                    -6.20162  -0.71679  -1.34711 
 H                    -7.23497   0.2869   -0.32815 
 H                    -5.97522   1.04034  -1.30725 
 
 NAtoms=     26 NQM=     26 NQMF=      0 NMic=      0 NMicF=      0 NTot=     26.
                    Isotopes and Nuclear Properties:
 (Nuclear quadrupole moments (NQMom) in fm**2, nuclear magnetic moments (NMagM)
  in nuclear magnetons)

  Atom         1           2           3           4           5           6           7           8           9          10
 IAtWgt=          12          12          12          12          12          12          14          12          12          12
 AtmWgt=  12.0000000  12.0000000  12.0000000  12.0000000  12.0000000  12.0000000  14.0030740  12.0000000  12.0000000  12.0000000
 NucSpn=           0           0           0           0           0           0           2           0           0           0
 AtZEff=   0.0000000   0.0000000   0.0000000   0.0000000   0.0000000   0.0000000   0.0000000   0.0000000   0.0000000   0.0000000
 NQMom=    0.0000000   0.0000000   0.0000000   0.0000000   0.0000000   0.0000000   2.0440000   0.0000000   0.0000000   0.0000000
 NMagM=    0.0000000   0.0000000   0.0000000   0.0000000   0.0000000   0.0000000   0.4037610   0.0000000   0.0000000   0.0000000

  Atom        11          12          13          14          15          16          17          18          19          20
 IAtWgt=          12          16          79          16          16          12           1           1           1           1
 AtmWgt=  12.0000000  15.9949146  78.9183361  15.9949146  15.9949146  12.0000000   1.0078250   1.0078250   1.0078250   1.0078250
 NucSpn=           0           0           3           0           0           0           1           1           1           1
 AtZEff=   0.0000000   0.0000000   0.0000000   0.0000000   0.0000000   0.0000000   0.0000000   0.0000000   0.0000000   0.0000000
 NQMom=    0.0000000   0.0000000  31.3000000   0.0000000   0.0000000   0.0000000   0.0000000   0.0000000   0.0000000   0.0000000
 NMagM=    0.0000000   0.0000000   2.1063990   0.0000000   0.0000000   0.0000000   2.7928460   2.7928460   2.7928460   2.7928460

  Atom        21          22          23          24          25          26
 IAtWgt=           1           1           1           1           1           1
 AtmWgt=   1.0078250   1.0078250   1.0078250   1.0078250   1.0078250   1.0078250
 NucSpn=           1           1           1           1           1           1
 AtZEff=   0.0000000   0.0000000   0.0000000   0.0000000   0.0000000   0.0000000
 NQMom=    0.0000000   0.0000000   0.0000000   0.0000000   0.0000000   0.0000000
 NMagM=    2.7928460   2.7928460   2.7928460   2.7928460   2.7928460   2.7928460
 Leave Link  101 at Fri Jul 05 12:15:22 2019, MaxMem=  209715200 cpu:       0.0
 (Enter C:\G09W\l103.exe)

 GradGradGradGradGradGradGradGradGradGradGradGradGradGradGradGradGradGrad
 Berny optimization.
 Initialization pass.
                           ----------------------------
                           !    Initial Parameters    !
                           ! (Angstroms and Degrees)  !
 --------------------------                            --------------------------
 ! Name  Definition              Value          Derivative Info.                !
 --------------------------------------------------------------------------------
 ! R1    R(1,2)                  1.3929         estimate D2E/DX2                !
 ! R2    R(1,6)                  1.3756         estimate D2E/DX2                !
 ! R3    R(1,17)                 1.0756         estimate D2E/DX2                !
 ! R4    R(2,3)                  1.3807         estimate D2E/DX2                !
 ! R5    R(2,7)                  1.4261         estimate D2E/DX2                !
 ! R6    R(3,4)                  1.3889         estimate D2E/DX2                !
 ! R7    R(3,18)                 1.0756         estimate D2E/DX2                !
 ! R8    R(4,5)                  1.3867         estimate D2E/DX2                !
 ! R9    R(4,19)                 1.0723         estimate D2E/DX2                !
 ! R10   R(5,6)                  1.3948         estimate D2E/DX2                !
 ! R11   R(5,15)                 1.3426         estimate D2E/DX2                !
 ! R12   R(6,20)                 1.0739         estimate D2E/DX2                !
 ! R13   R(7,8)                  1.3431         estimate D2E/DX2                !
 ! R14   R(7,21)                 0.996          estimate D2E/DX2                !
 ! R15   R(8,9)                  1.3354         estimate D2E/DX2                !
 ! R16   R(8,10)                 1.5071         estimate D2E/DX2                !
 ! R17   R(9,11)                 1.4602         estimate D2E/DX2                !
 ! R18   R(9,13)                 1.8674         estimate D2E/DX2                !
 ! R19   R(10,12)                1.4035         estimate D2E/DX2                !
 ! R20   R(10,22)                1.0829         estimate D2E/DX2                !
 ! R21   R(10,23)                1.0829         estimate D2E/DX2                !
 ! R22   R(11,12)                1.3542         estimate D2E/DX2                !
 ! R23   R(11,14)                1.1797         estimate D2E/DX2                !
 ! R24   R(15,16)                1.4021         estimate D2E/DX2                !
 ! R25   R(16,24)                1.0852         estimate D2E/DX2                !
 ! R26   R(16,25)                1.0796         estimate D2E/DX2                !
 ! R27   R(16,26)                1.0853         estimate D2E/DX2                !
 ! A1    A(2,1,6)              120.5662         estimate D2E/DX2                !
 ! A2    A(2,1,17)             119.3872         estimate D2E/DX2                !
 ! A3    A(6,1,17)             120.0464         estimate D2E/DX2                !
 ! A4    A(1,2,3)              118.9968         estimate D2E/DX2                !
 ! A5    A(1,2,7)              120.4429         estimate D2E/DX2                !
 ! A6    A(3,2,7)              120.5517         estimate D2E/DX2                !
 ! A7    A(2,3,4)              121.042          estimate D2E/DX2                !
 ! A8    A(2,3,18)             119.3703         estimate D2E/DX2                !
 ! A9    A(4,3,18)             119.5873         estimate D2E/DX2                !
 ! A10   A(3,4,5)              119.5682         estimate D2E/DX2                !
 ! A11   A(3,4,19)             119.1288         estimate D2E/DX2                !
 ! A12   A(5,4,19)             121.3028         estimate D2E/DX2                !
 ! A13   A(4,5,6)              119.6383         estimate D2E/DX2                !
 ! A14   A(4,5,15)             124.6367         estimate D2E/DX2                !
 ! A15   A(6,5,15)             115.725          estimate D2E/DX2                !
 ! A16   A(1,6,5)              120.1871         estimate D2E/DX2                !
 ! A17   A(1,6,20)             121.2455         estimate D2E/DX2                !
 ! A18   A(5,6,20)             118.5673         estimate D2E/DX2                !
 ! A19   A(2,7,8)              124.7691         estimate D2E/DX2                !
 ! A20   A(2,7,21)             118.75           estimate D2E/DX2                !
 ! A21   A(8,7,21)             116.4594         estimate D2E/DX2                !
 ! A22   A(7,8,9)              129.6003         estimate D2E/DX2                !
 ! A23   A(7,8,10)             123.1412         estimate D2E/DX2                !
 ! A24   A(9,8,10)             107.2584         estimate D2E/DX2                !
 ! A25   A(8,9,11)             109.772          estimate D2E/DX2                !
 ! A26   A(8,9,13)             126.6163         estimate D2E/DX2                !
 ! A27   A(11,9,13)            123.6117         estimate D2E/DX2                !
 ! A28   A(8,10,12)            104.7367         estimate D2E/DX2                !
 ! A29   A(8,10,22)            111.7887         estimate D2E/DX2                !
 ! A30   A(8,10,23)            111.804          estimate D2E/DX2                !
 ! A31   A(12,10,22)           109.8052         estimate D2E/DX2                !
 ! A32   A(12,10,23)           109.82           estimate D2E/DX2                !
 ! A33   A(22,10,23)           108.8204         estimate D2E/DX2                !
 ! A34   A(9,11,12)            106.8957         estimate D2E/DX2                !
 ! A35   A(9,11,14)            130.4714         estimate D2E/DX2                !
 ! A36   A(12,11,14)           122.6329         estimate D2E/DX2                !
 ! A37   A(10,12,11)           111.3373         estimate D2E/DX2                !
 ! A38   A(5,15,16)            120.0637         estimate D2E/DX2                !
 ! A39   A(15,16,24)           111.3752         estimate D2E/DX2                !
 ! A40   A(15,16,25)           106.1613         estimate D2E/DX2                !
 ! A41   A(15,16,26)           111.3777         estimate D2E/DX2                !
 ! A42   A(24,16,25)           109.1925         estimate D2E/DX2                !
 ! A43   A(24,16,26)           109.4614         estimate D2E/DX2                !
 ! A44   A(25,16,26)           109.1856         estimate D2E/DX2                !
 ! D1    D(6,1,2,3)             -0.4014         estimate D2E/DX2                !
 ! D2    D(6,1,2,7)           -179.3439         estimate D2E/DX2                !
 ! D3    D(17,1,2,3)           179.3994         estimate D2E/DX2                !
 ! D4    D(17,1,2,7)             0.4569         estimate D2E/DX2                !
 ! D5    D(2,1,6,5)              0.1315         estimate D2E/DX2                !
 ! D6    D(2,1,6,20)          -179.9753         estimate D2E/DX2                !
 ! D7    D(17,1,6,5)          -179.6679         estimate D2E/DX2                !
 ! D8    D(17,1,6,20)            0.2253         estimate D2E/DX2                !
 ! D9    D(1,2,3,4)              0.442          estimate D2E/DX2                !
 ! D10   D(1,2,3,18)          -179.3183         estimate D2E/DX2                !
 ! D11   D(7,2,3,4)            179.3834         estimate D2E/DX2                !
 ! D12   D(7,2,3,18)            -0.377          estimate D2E/DX2                !
 ! D13   D(1,2,7,8)            -90.4236         estimate D2E/DX2                !
 ! D14   D(1,2,7,21)            87.8252         estimate D2E/DX2                !
 ! D15   D(3,2,7,8)             90.6505         estimate D2E/DX2                !
 ! D16   D(3,2,7,21)           -91.1007         estimate D2E/DX2                !
 ! D17   D(2,3,4,5)             -0.2113         estimate D2E/DX2                !
 ! D18   D(2,3,4,19)           179.947          estimate D2E/DX2                !
 ! D19   D(18,3,4,5)           179.5486         estimate D2E/DX2                !
 ! D20   D(18,3,4,19)           -0.2932         estimate D2E/DX2                !
 ! D21   D(3,4,5,6)             -0.0656         estimate D2E/DX2                !
 ! D22   D(3,4,5,15)          -179.9951         estimate D2E/DX2                !
 ! D23   D(19,4,5,6)           179.7727         estimate D2E/DX2                !
 ! D24   D(19,4,5,15)           -0.1568         estimate D2E/DX2                !
 ! D25   D(4,5,6,1)              0.1041         estimate D2E/DX2                !
 ! D26   D(4,5,6,20)          -179.792          estimate D2E/DX2                !
 ! D27   D(15,5,6,1)          -179.9603         estimate D2E/DX2                !
 ! D28   D(15,5,6,20)            0.1437         estimate D2E/DX2                !
 ! D29   D(4,5,15,16)            0.0664         estimate D2E/DX2                !
 ! D30   D(6,5,15,16)         -179.8656         estimate D2E/DX2                !
 ! D31   D(2,7,8,9)            179.091          estimate D2E/DX2                !
 ! D32   D(2,7,8,10)            -1.059          estimate D2E/DX2                !
 ! D33   D(21,7,8,9)             0.8059         estimate D2E/DX2                !
 ! D34   D(21,7,8,10)         -179.344          estimate D2E/DX2                !
 ! D35   D(7,8,9,11)           179.8486         estimate D2E/DX2                !
 ! D36   D(7,8,9,13)            -0.1423         estimate D2E/DX2                !
 ! D37   D(10,8,9,11)           -0.02           estimate D2E/DX2                !
 ! D38   D(10,8,9,13)          179.9891         estimate D2E/DX2                !
 ! D39   D(7,8,10,12)         -179.8683         estimate D2E/DX2                !
 ! D40   D(7,8,10,22)          -61.023          estimate D2E/DX2                !
 ! D41   D(7,8,10,23)           61.2606         estimate D2E/DX2                !
 ! D42   D(9,8,10,12)            0.0107         estimate D2E/DX2                !
 ! D43   D(9,8,10,22)          118.856          estimate D2E/DX2                !
 ! D44   D(9,8,10,23)         -118.8603         estimate D2E/DX2                !
 ! D45   D(8,9,11,12)            0.0224         estimate D2E/DX2                !
 ! D46   D(8,9,11,14)         -179.9711         estimate D2E/DX2                !
 ! D47   D(13,9,11,12)        -179.9864         estimate D2E/DX2                !
 ! D48   D(13,9,11,14)           0.0202         estimate D2E/DX2                !
 ! D49   D(8,10,12,11)           0.0034         estimate D2E/DX2                !
 ! D50   D(22,10,12,11)       -120.1729         estimate D2E/DX2                !
 ! D51   D(23,10,12,11)        120.2055         estimate D2E/DX2                !
 ! D52   D(9,11,12,10)          -0.0151         estimate D2E/DX2                !
 ! D53   D(14,11,12,10)        179.979          estimate D2E/DX2                !
 ! D54   D(5,15,16,24)          61.2549         estimate D2E/DX2                !
 ! D55   D(5,15,16,25)        -179.996          estimate D2E/DX2                !
 ! D56   D(5,15,16,26)         -61.2537         estimate D2E/DX2                !
 --------------------------------------------------------------------------------
 Trust Radius=3.00D-01 FncErr=1.00D-07 GrdErr=1.00D-06
 Number of steps in this run= 137 maximum allowed number of steps= 156.
 GradGradGradGradGradGradGradGradGradGradGradGradGradGradGradGradGradGrad

 Leave Link  103 at Fri Jul 05 12:15:23 2019, MaxMem=  209715200 cpu:       1.0
 (Enter C:\G09W\l202.exe)
                          Input orientation:                          
 ---------------------------------------------------------------------
 Center     Atomic      Atomic             Coordinates (Angstroms)
 Number     Number       Type             X           Y           Z
 ---------------------------------------------------------------------
      1          6           0       -1.961161   -0.432754    1.328428
      2          6           0       -1.313509   -0.481894    0.096222
      3          6           0       -2.061373   -0.362149   -1.058261
      4          6           0       -3.438031   -0.185727   -1.004783
      5          6           0       -4.073861   -0.133098    0.226468
      6          6           0       -3.324138   -0.259239    1.395914
      7          7           0        0.097757   -0.675828    0.028897
      8          6           0        1.007150    0.312475    0.020834
      9          6           0        2.340042    0.242458   -0.022814
     10          6           0        0.637173    1.772888    0.059849
     11          6           0        2.905867    1.588549   -0.016139
     12          8           0        1.864570    2.452952    0.033300
     13         35           0        3.372279   -1.312463   -0.084346
     14          8           0        4.029354    1.947027   -0.045735
     15          8           0       -5.395201    0.033302    0.396448
     16          6           0       -6.235462    0.166889   -0.718054
     17          1           0       -1.385929   -0.535127    2.231493
     18          1           0       -1.568831   -0.410321   -2.013238
     19          1           0       -3.988655   -0.095362   -1.920480
     20          1           0       -3.834533   -0.219363    2.339937
     21          1           0        0.453153   -1.606061    0.010702
     22          1           0        0.040380    2.059369   -0.797095
     23          1           0        0.096178    2.026786    0.962941
     24          1           0       -6.201621   -0.716791   -1.347114
     25          1           0       -7.234970    0.286897   -0.328145
     26          1           0       -5.975224    1.040336   -1.307253
 ---------------------------------------------------------------------
                    Distance matrix (angstroms):
                    1          2          3          4          5
     1  C    0.000000
     2  C    1.392910   0.000000
     3  C    2.389835   1.380750   0.000000
     4  C    2.772371   2.411124   1.388946   0.000000
     5  C    2.401585   2.785348   2.398562   1.386733   0.000000
     6  C    1.375634   2.404455   2.761909   2.404521   1.394848
     7  N    2.446837   1.426119   2.437652   3.716247   4.211412
     8  C    3.328068   2.454010   3.321957   4.589088   5.104654
     9  C    4.558740   3.726565   4.561815   5.876541   6.429723
    10  C    3.636687   2.981698   3.618108   4.645094   5.084721
    11  C    5.438887   4.701329   5.437344   6.661120   7.193019
    12  O    4.963957   4.326369   4.952709   6.013137   6.479964
    13  Br   5.587074   4.762254   5.601445   6.963983   7.545363
    14  O    6.590747   5.870775   6.592000   7.824976   8.370371
    15  O    3.588652   4.125018   3.658821   2.417010   1.342580
    16  C    4.776747   5.030863   4.221213   2.834109   2.377947
    17  H    1.075592   2.137162   3.362830   3.847946   3.377385
    18  H    3.364693   2.126061   1.075593   2.135728   3.371693
    19  H    3.844472   3.372373   2.128148   1.072312   2.148969
    20  H    2.139675   3.385076   3.835653   3.368308   2.128725
    21  H    2.990312   2.095748   3.002139   4.264959   4.765504
    22  H    3.838579   3.014805   3.217036   4.145230   4.773004
    23  H    3.227315   3.005311   3.800960   4.610617   4.753600
    24  H    5.022022   5.102160   4.165436   2.834898   2.710022
    25  H    5.574513   5.986220   5.265020   3.885609   3.236758
    26  H    5.022899   5.100835   4.164996   2.834090   2.710061
                    6          7          8          9         10
     6  C    0.000000
     7  N    3.708321   0.000000
     8  C    4.580148   1.343058   0.000000
     9  C    5.860668   2.423585   1.335443   0.000000
    10  C    4.648289   2.507616   1.507054   2.291029   0.000000
    11  C    6.649900   3.607619   2.287981   1.460193   2.277439
    12  O    6.011272   3.593176   2.305855   2.261748   1.403458
    13  Br   6.938476   3.337757   2.871467   1.867372   4.125650
    14  O    7.811518   4.726774   3.436555   2.399970   3.398288
    15  O    2.318149   5.550725   6.419433   7.749420   6.287209
    16  C    3.623017   6.432556   7.281660   8.603972   7.100527
    17  H    2.128605   2.659427   3.366344   4.423731   3.759776
    18  H    3.837479   2.649212   3.360887   4.434771   3.732365
    19  H    3.386282   4.564622   5.375230   6.615713   5.367527
    20  H    1.073905   4.583903   5.394718   6.627311   5.400372
    21  H    4.242720   0.995977   1.996947   2.641684   3.384313
    22  H    4.637371   2.857771   2.157612   3.031356   1.082860
    23  H    4.136658   2.859469   2.157846   3.031578   1.082920
    24  H    4.001683   6.448042   7.409254   8.696777   7.412634
    25  H    4.308741   7.404269   8.249544   9.579982   8.020558
    26  H    4.003032   6.450706   7.144728   8.451630   6.791862
                   11         12         13         14         15
    11  C    0.000000
    12  O    1.354229   0.000000
    13  Br   2.939058   4.057755   0.000000
    14  O    1.179663   2.224522   3.325284   0.000000
    15  O    8.455575   7.660996   8.883184   9.627051   0.000000
    16  C    9.277807   8.449919   9.741599  10.439701   1.402141
    17  H    5.289741   4.932181   5.348636   6.377472   4.445758
    18  H    5.292146   4.916797   5.380432   6.384969   4.543621
    19  H    7.348231   6.676182   7.683493   8.483778   2.713500
    20  H    7.365639   6.703851   7.681807   8.498553   2.505329
    21  H    4.027662   4.297464   2.935393   5.041511   6.086013
    22  H    3.007088   2.042580   4.793622   4.060674   5.922418
    23  H    3.007491   2.042807   4.793770   4.061239   5.869424
    24  H    9.488542   8.775890   9.675173  10.651871   2.062271
    25  H   10.228794   9.360773  10.729917  11.389503   1.993513
    26  H    8.991178   8.078053   9.716325  10.124480   2.062315
                   16         17         18         19         20
    16  C    0.000000
    17  H    5.719320   0.000000
    18  H    4.877306   4.250502   0.000000
    19  H    2.561786   4.920006   2.441997   0.000000
    20  H    3.907040   2.471261   4.911212   4.265007   0.000000
    21  H    6.957874   3.075880   3.100733   5.073592   5.072723
    22  H    6.555450   4.235341   3.188720   4.705102   5.481655
    23  H    6.809892   3.220134   4.191585   5.431711   4.731997
    24  H    1.085243   6.002526   4.690457   2.368996   4.409636
    25  H    1.079559   6.437294   5.952376   3.635961   4.351773
    26  H    1.085260   6.005534   4.692453   2.369032   4.412640
                   21         22         23         24         25
    21  H    0.000000
    22  H    3.776016   0.000000
    23  H    3.772502   1.761222   0.000000
    24  H    6.849853   6.853624   7.247471   0.000000
    25  H    7.924982   7.502819   7.644596   1.764511   0.000000
    26  H    7.075624   6.122596   6.556583   1.772100   1.764450
                   26
    26  H    0.000000
 Stoichiometry    C11H10BrNO3
 Framework group  C1[X(C11H10BrNO3)]
 Deg. of freedom    72
 Full point group                 C1      NOp   1
 Largest Abelian subgroup         C1      NOp   1
 Largest concise Abelian subgroup C1      NOp   1
                         Standard orientation:                         
 ---------------------------------------------------------------------
 Center     Atomic      Atomic             Coordinates (Angstroms)
 Number     Number       Type             X           Y           Z
 ---------------------------------------------------------------------
      1          6           0       -1.961161   -0.432754    1.328428
      2          6           0       -1.313509   -0.481894    0.096222
      3          6           0       -2.061373   -0.362149   -1.058261
      4          6           0       -3.438031   -0.185727   -1.004783
      5          6           0       -4.073861   -0.133098    0.226468
      6          6           0       -3.324138   -0.259239    1.395914
      7          7           0        0.097757   -0.675828    0.028897
      8          6           0        1.007150    0.312475    0.020834
      9          6           0        2.340042    0.242458   -0.022814
     10          6           0        0.637173    1.772888    0.059849
     11          6           0        2.905867    1.588549   -0.016139
     12          8           0        1.864570    2.452952    0.033300
     13         35           0        3.372279   -1.312463   -0.084346
     14          8           0        4.029354    1.947027   -0.045735
     15          8           0       -5.395201    0.033302    0.396448
     16          6           0       -6.235462    0.166889   -0.718054
     17          1           0       -1.385929   -0.535127    2.231493
     18          1           0       -1.568831   -0.410321   -2.013238
     19          1           0       -3.988655   -0.095362   -1.920480
     20          1           0       -3.834533   -0.219363    2.339937
     21          1           0        0.453153   -1.606061    0.010702
     22          1           0        0.040380    2.059369   -0.797095
     23          1           0        0.096178    2.026786    0.962941
     24          1           0       -6.201621   -0.716791   -1.347114
     25          1           0       -7.234970    0.286897   -0.328145
     26          1           0       -5.975224    1.040336   -1.307253
 ---------------------------------------------------------------------
 Rotational constants (GHZ):      1.0245845      0.1591580      0.1460087
 Leave Link  202 at Fri Jul 05 12:15:23 2019, MaxMem=  209715200 cpu:       0.0
 (Enter C:\G09W\l301.exe)
 Standard basis: 6-311++G(d,p) (5D, 7F)
 Ernie: Thresh=  0.10000D-02 Tol=  0.10000D-05 Strict=F.
 There are   448 symmetry adapted basis functions of A   symmetry.
 Integral buffers will be    262144 words long.
 Raffenetti 2 integral format.
 Two-electron integral symmetry is turned on.
   448 basis functions,   724 primitive gaussians,   466 cartesian basis functions
    71 alpha electrons       71 beta electrons
       nuclear repulsion energy      1363.5036329325 Hartrees.
 IExCor=  402 DFT=T Ex+Corr=B3LYP ExCW=0 ScaHFX=  0.200000
 ScaDFX=  0.800000  0.720000  1.000000  0.810000 ScalE2=  1.000000  1.000000
 IRadAn=      0 IRanWt=     -1 IRanGd=            0 ICorTp=0
 NAtoms=   26 NActive=   26 NUniq=   26 SFac= 7.50D-01 NAtFMM=   80 NAOKFM=F Big=F
 Leave Link  301 at Fri Jul 05 12:15:23 2019, MaxMem=  209715200 cpu:       0.0
 (Enter C:\G09W\l302.exe)
 NPDir=0 NMtPBC=     1 NCelOv=     1 NCel=       1 NClECP=     1 NCelD=      1
         NCelK=      1 NCelE2=     1 NClLst=     1 CellRange=     0.0.
 One-electron integrals computed using PRISM.
 NBasis=   448 RedAO= T  NBF=   448
 NBsUse=   447 1.00D-06 NBFU=   447
 Precomputing XC quadrature grid using
 IXCGrd= 2 IRadAn=           0 IRanWt=          -1 IRanGd=           0 AccXCQ= 1.00D-10.
 NRdTot=    1697 NPtTot=      220136 NUsed=      228045 NTot=      228061
 NSgBfM=   449   449   449   449   449 NAtAll=    26    26.
 Leave Link  302 at Fri Jul 05 12:15:24 2019, MaxMem=  209715200 cpu:       1.0
 (Enter C:\G09W\l303.exe)
 DipDrv:  MaxL=1.
 Leave Link  303 at Fri Jul 05 12:15:24 2019, MaxMem=  209715200 cpu:       0.0
 (Enter C:\G09W\l401.exe)
 Harris functional with IExCor=  402 diagonalized for initial guess.
 ExpMin= 3.50D-02 ExpMax= 4.40D+05 ExpMxC= 1.51D+04 IAcc=3 IRadAn=         0 AccDes= 0.00D+00
 HarFok:  IExCor=  402 AccDes= 0.00D+00 IRadAn=         0 IDoV= 1
 ScaDFX=  1.000000  1.000000  1.000000  1.000000
 FoFCou: FMM=F IPFlag=           0 FMFlag=      100000 FMFlg1=           0
         NFxFlg=           0 DoJE=T BraDBF=F KetDBF=T FulRan=T
         Omega=  0.000000  0.000000  1.000000  0.000000  0.000000 ICntrl=     500 IOpCl=  0
         NMat0=    1 NMatS0=    1 NMatT0=    0 NMatD0=    1 NMtDS0=    0 NMtDT0=    0
         I1Cent=           4 NGrid=           0.
 Petite list used in FoFCou.
 Harris En= -3280.14299251711    
 Initial guess orbital symmetries:
       Occupied  (A) (A) (A) (A) (A) (A) (A) (A) (A) (A) (A) (A)
                 (A) (A) (A) (A) (A) (A) (A) (A) (A) (A) (A) (A)
                 (A) (A) (A) (A) (A) (A) (A) (A) (A) (A) (A) (A)
                 (A) (A) (A) (A) (A) (A) (A) (A) (A) (A) (A) (A)
                 (A) (A) (A) (A) (A) (A) (A) (A) (A) (A) (A) (A)
                 (A) (A) (A) (A) (A) (A) (A) (A) (A) (A) (A)
       Virtual   (A) (A) (A) (A) (A) (A) (A) (A) (A) (A) (A) (A)
                 (A) (A) (A) (A) (A) (A) (A) (A) (A) (A) (A) (A)
                 (A) (A) (A) (A) (A) (A) (A) (A) (A) (A) (A) (A)
                 (A) (A) (A) (A) (A) (A) (A) (A) (A) (A) (A) (A)
                 (A) (A) (A) (A) (A) (A) (A) (A) (A) (A) (A) (A)
                 (A) (A) (A) (A) (A) (A) (A) (A) (A) (A) (A) (A)
                 (A) (A) (A) (A) (A) (A) (A) (A) (A) (A) (A) (A)
                 (A) (A) (A) (A) (A) (A) (A) (A) (A) (A) (A) (A)
                 (A) (A) (A) (A) (A) (A) (A) (A) (A) (A) (A) (A)
                 (A) (A) (A) (A) (A) (A) (A) (A) (A) (A) (A) (A)
                 (A) (A) (A) (A) (A) (A) (A) (A) (A) (A) (A) (A)
                 (A) (A) (A) (A) (A) (A) (A) (A) (A) (A) (A) (A)
                 (A) (A) (A) (A) (A) (A) (A) (A) (A) (A) (A) (A)
                 (A) (A) (A) (A) (A) (A) (A) (A) (A) (A) (A) (A)
                 (A) (A) (A) (A) (A) (A) (A) (A) (A) (A) (A) (A)
                 (A) (A) (A) (A) (A) (A) (A) (A) (A) (A) (A) (A)
                 (A) (A) (A) (A) (A) (A) (A) (A) (A) (A) (A) (A)
                 (A) (A) (A) (A) (A) (A) (A) (A) (A) (A) (A) (A)
                 (A) (A) (A) (A) (A) (A) (A) (A) (A) (A) (A) (A)
                 (A) (A) (A) (A) (A) (A) (A) (A) (A) (A) (A) (A)
                 (A) (A) (A) (A) (A) (A) (A) (A) (A) (A) (A) (A)
                 (A) (A) (A) (A) (A) (A) (A) (A) (A) (A) (A) (A)
                 (A) (A) (A) (A) (A) (A) (A) (A) (A) (A) (A) (A)
                 (A) (A) (A) (A) (A) (A) (A) (A) (A) (A) (A) (A)
                 (A) (A) (A) (A) (A) (A) (A) (A) (A) (A) (A) (A)
                 (A) (A) (A) (A) (A) (A) (A) (A) (A) (A) (A) (A)
                 (A) (A) (A) (A) (A) (A) (A) (A) (A) (A) (A) (A)
                 (A) (A) (A) (A) (A) (A) (A) (A) (A) (A) (A) (A)
                 (A) (A) (A) (A) (A) (A) (A) (A) (A) (A) (A) (A)
                 (A) (A) (A) (A) (A) (A) (A) (A) (A) (A) (A) (A)
                 (A) (A) (A) (A) (A) (A) (A) (A) (A) (A) (A) (A)
                 (A) (A) (A) (A)
 The electronic state of the initial guess is 1-A.
 Leave Link  401 at Fri Jul 05 12:15:31 2019, MaxMem=  209715200 cpu:       6.0
 (Enter C:\G09W\l502.exe)
 Closed shell SCF:
 Requested convergence on RMS density matrix=1.00D-08 within 128 cycles.
 Requested convergence on MAX density matrix=1.00D-06.
 Requested convergence on             energy=1.00D-06.
 No special actions if energy rises.
 Using DIIS extrapolation, IDIIS=  1040.
 Integral symmetry usage will be decided dynamically.
       227825 words used for storage of precomputed grid.
 IEnd=      903118 IEndB=      903118 NGot=   209715200 MDV=   209046345
 LenX=   209046345 LenY=   208828723
 Fock matrices will be formed incrementally for  20 cycles.

 Cycle   1  Pass 1  IDiag  1:
 FoFCou: FMM=F IPFlag=           0 FMFlag=      100000 FMFlg1=           0
         NFxFlg=           0 DoJE=F BraDBF=F KetDBF=F FulRan=T
         Omega=  0.000000  0.000000  1.000000  0.000000  0.000000 ICntrl=       0 IOpCl=  0
         NMat0=    1 NMatS0=    1 NMatT0=    0 NMatD0=    1 NMtDS0=    0 NMtDT0=    0
         I1Cent=           0 NGrid=           0.
 Symmetry not used in FoFCou.
 E= -3279.46327558541    
 DIIS: error= 6.18D-02 at cycle   1 NSaved=   1.
 NSaved= 1 IEnMin= 1 EnMin= -3279.46327558541     IErMin= 1 ErrMin= 6.18D-02
 ErrMax= 6.18D-02 EMaxC= 1.00D-01 BMatC= 2.03D+00 BMatP= 2.03D+00
 IDIUse=3 WtCom= 3.82D-01 WtEn= 6.18D-01
 Coeff-Com:  0.100D+01
 Coeff-En:   0.100D+01
 Coeff:      0.100D+01
 Gap=     0.359 Goal=   None    Shift=    0.000
 GapD=    0.359 DampG=1.000 DampE=0.500 DampFc=0.5000 IDamp=-1.
 Damping current iteration by 5.00D-01
 RMSDP=3.84D-02 MaxDP=7.25D+00              OVMax= 2.54D-01

 Cycle   2  Pass 1  IDiag  1:
 RMSU=  1.26D-02    CP:  1.15D+00
 E= -3279.64401765718     Delta-E=       -0.180742071773 Rises=F Damp=T
 DIIS: error= 2.92D-02 at cycle   2 NSaved=   2.
 NSaved= 2 IEnMin= 2 EnMin= -3279.64401765718     IErMin= 2 ErrMin= 2.92D-02
 ErrMax= 2.92D-02 EMaxC= 1.00D-01 BMatC= 2.42D-01 BMatP= 2.03D+00
 IDIUse=3 WtCom= 7.08D-01 WtEn= 2.92D-01
 Coeff-Com: -0.137D+00 0.114D+01
 Coeff-En:   0.218D+00 0.782D+00
 Coeff:     -0.334D-01 0.103D+01
 Gap=     0.342 Goal=   None    Shift=    0.000
 RMSDP=1.75D-02 MaxDP=3.23D+00 DE=-1.81D-01 OVMax= 2.29D-01

 Cycle   3  Pass 1  IDiag  1:
 RMSU=  4.84D-03    CP:  9.62D-01  2.56D-01
 E= -3279.83111547823     Delta-E=       -0.187097821054 Rises=F Damp=F
 DIIS: error= 2.51D-02 at cycle   3 NSaved=   3.
 NSaved= 3 IEnMin= 3 EnMin= -3279.83111547823     IErMin= 3 ErrMin= 2.51D-02
 ErrMax= 2.51D-02 EMaxC= 1.00D-01 BMatC= 1.49D-01 BMatP= 2.42D-01
 IDIUse=3 WtCom= 7.49D-01 WtEn= 2.51D-01
 Coeff-Com: -0.159D+00 0.556D+00 0.603D+00
 Coeff-En:   0.000D+00 0.000D+00 0.100D+01
 Coeff:     -0.119D+00 0.416D+00 0.703D+00
 Gap=     0.189 Goal=   None    Shift=    0.000
 RMSDP=7.86D-03 MaxDP=1.02D+00 DE=-1.87D-01 OVMax= 1.83D-01

 Cycle   4  Pass 1  IDiag  1:
 RMSU=  3.22D-03    CP:  1.01D+00  5.96D-01  9.52D-01
 E= -3279.83787520621     Delta-E=       -0.006759727976 Rises=F Damp=F
 DIIS: error= 2.45D-02 at cycle   4 NSaved=   4.
 NSaved= 4 IEnMin= 4 EnMin= -3279.83787520621     IErMin= 4 ErrMin= 2.45D-02
 ErrMax= 2.45D-02 EMaxC= 1.00D-01 BMatC= 1.31D-01 BMatP= 1.49D-01
 IDIUse=3 WtCom= 7.55D-01 WtEn= 2.45D-01
 Coeff-Com: -0.788D-01 0.210D+00 0.502D+00 0.366D+00
 Coeff-En:   0.000D+00 0.000D+00 0.487D+00 0.513D+00
 Coeff:     -0.595D-01 0.159D+00 0.498D+00 0.402D+00
 Gap=     0.239 Goal=   None    Shift=    0.000
 RMSDP=6.03D-03 MaxDP=1.09D+00 DE=-6.76D-03 OVMax= 1.06D-01

 Cycle   5  Pass 1  IDiag  1:
 RMSU=  1.75D-03    CP:  9.28D-01  4.12D-01  8.31D-01  5.34D-01
 E= -3279.93222464911     Delta-E=       -0.094349442898 Rises=F Damp=F
 DIIS: error= 3.15D-03 at cycle   5 NSaved=   5.
 NSaved= 5 IEnMin= 5 EnMin= -3279.93222464911     IErMin= 5 ErrMin= 3.15D-03
 ErrMax= 3.15D-03 EMaxC= 1.00D-01 BMatC= 2.78D-03 BMatP= 1.31D-01
 IDIUse=3 WtCom= 9.69D-01 WtEn= 3.15D-02
 Coeff-Com: -0.103D-01 0.293D-01 0.173D+00 0.202D+00 0.606D+00
 Coeff-En:   0.000D+00 0.000D+00 0.000D+00 0.000D+00 0.100D+01
 Coeff:     -0.100D-01 0.284D-01 0.168D+00 0.196D+00 0.618D+00
 Gap=     0.190 Goal=   None    Shift=    0.000
 RMSDP=1.65D-03 MaxDP=2.87D-01 DE=-9.43D-02 OVMax= 1.46D-02

 Cycle   6  Pass 1  IDiag  1:
 RMSU=  4.14D-04    CP:  9.44D-01  4.34D-01  9.41D-01  6.03D-01  5.99D-01
 E= -3279.93436094650     Delta-E=       -0.002136297392 Rises=F Damp=F
 DIIS: error= 1.35D-03 at cycle   6 NSaved=   6.
 NSaved= 6 IEnMin= 6 EnMin= -3279.93436094650     IErMin= 6 ErrMin= 1.35D-03
 ErrMax= 1.35D-03 EMaxC= 1.00D-01 BMatC= 3.61D-04 BMatP= 2.78D-03
 IDIUse=3 WtCom= 9.87D-01 WtEn= 1.35D-02
 Coeff-Com:  0.396D-02-0.841D-02 0.254D-01 0.569D-01 0.368D+00 0.555D+00
 Coeff-En:   0.000D+00 0.000D+00 0.000D+00 0.000D+00 0.104D+00 0.896D+00
 Coeff:      0.391D-02-0.830D-02 0.250D-01 0.562D-01 0.364D+00 0.559D+00
 Gap=     0.187 Goal=   None    Shift=    0.000
 RMSDP=3.24D-04 MaxDP=2.97D-02 DE=-2.14D-03 OVMax= 7.71D-03

 Cycle   7  Pass 1  IDiag  1:
 RMSU=  1.19D-04    CP:  9.45D-01  4.29D-01  9.30D-01  5.93D-01  6.33D-01
                    CP:  6.13D-01
 E= -3279.93468377687     Delta-E=       -0.000322830372 Rises=F Damp=F
 DIIS: error= 5.53D-04 at cycle   7 NSaved=   7.
 NSaved= 7 IEnMin= 7 EnMin= -3279.93468377687     IErMin= 7 ErrMin= 5.53D-04
 ErrMax= 5.53D-04 EMaxC= 1.00D-01 BMatC= 3.07D-05 BMatP= 3.61D-04
 IDIUse=3 WtCom= 9.94D-01 WtEn= 5.53D-03
 Coeff-Com:  0.244D-02-0.535D-02 0.226D-02 0.143D-01 0.157D+00 0.309D+00
 Coeff-Com:  0.521D+00
 Coeff-En:   0.000D+00 0.000D+00 0.000D+00 0.000D+00 0.000D+00 0.000D+00
 Coeff-En:   0.100D+01
 Coeff:      0.243D-02-0.532D-02 0.225D-02 0.142D-01 0.156D+00 0.307D+00
 Coeff:      0.523D+00
 Gap=     0.187 Goal=   None    Shift=    0.000
 RMSDP=9.37D-05 MaxDP=1.15D-02 DE=-3.23D-04 OVMax= 2.80D-03

 Cycle   8  Pass 1  IDiag  1:
 RMSU=  3.30D-05    CP:  9.44D-01  4.29D-01  9.26D-01  5.97D-01  6.53D-01
                    CP:  6.17D-01  7.51D-01
 E= -3279.93470943239     Delta-E=       -0.000025655519 Rises=F Damp=F
 DIIS: error= 2.12D-04 at cycle   8 NSaved=   8.
 NSaved= 8 IEnMin= 8 EnMin= -3279.93470943239     IErMin= 8 ErrMin= 2.12D-04
 ErrMax= 2.12D-04 EMaxC= 1.00D-01 BMatC= 5.67D-06 BMatP= 3.07D-05
 IDIUse=3 WtCom= 9.98D-01 WtEn= 2.12D-03
 Coeff-Com:  0.102D-02-0.221D-02-0.980D-03 0.176D-02 0.552D-01 0.128D+00
 Coeff-Com:  0.337D+00 0.480D+00
 Coeff-En:   0.000D+00 0.000D+00 0.000D+00 0.000D+00 0.000D+00 0.000D+00
 Coeff-En:   0.131D+00 0.869D+00
 Coeff:      0.102D-02-0.220D-02-0.978D-03 0.175D-02 0.551D-01 0.128D+00
 Coeff:      0.337D+00 0.481D+00
 Gap=     0.188 Goal=   None    Shift=    0.000
 RMSDP=6.06D-05 MaxDP=1.08D-02 DE=-2.57D-05 OVMax= 8.84D-04

 Cycle   9  Pass 1  IDiag  1:
 RMSU=  9.25D-06    CP:  9.43D-01  4.28D-01  9.24D-01  5.95D-01  6.60D-01
                    CP:  6.32D-01  7.48D-01  5.72D-01
 E= -3279.93471468411     Delta-E=       -0.000005251723 Rises=F Damp=F
 DIIS: error= 3.10D-05 at cycle   9 NSaved=   9.
 NSaved= 9 IEnMin= 9 EnMin= -3279.93471468411     IErMin= 9 ErrMin= 3.10D-05
 ErrMax= 3.10D-05 EMaxC= 1.00D-01 BMatC= 3.50D-07 BMatP= 5.67D-06
 IDIUse=1 WtCom= 1.00D+00 WtEn= 0.00D+00
 Coeff-Com:  0.397D-03-0.864D-03-0.487D-03-0.146D-03 0.192D-01 0.482D-01
 Coeff-Com:  0.150D+00 0.272D+00 0.511D+00
 Coeff:      0.397D-03-0.864D-03-0.487D-03-0.146D-03 0.192D-01 0.482D-01
 Coeff:      0.150D+00 0.272D+00 0.511D+00
 Gap=     0.188 Goal=   None    Shift=    0.000
 RMSDP=1.14D-05 MaxDP=1.46D-03 DE=-5.25D-06 OVMax= 2.94D-04

 Cycle  10  Pass 1  IDiag  1:
 RMSU=  2.95D-06    CP:  9.43D-01  4.28D-01  9.25D-01  5.96D-01  6.58D-01
                    CP:  6.37D-01  7.46D-01  6.12D-01  7.71D-01
 E= -3279.93471496166     Delta-E=       -0.000000277544 Rises=F Damp=F
 DIIS: error= 1.05D-05 at cycle  10 NSaved=  10.
 NSaved=10 IEnMin=10 EnMin= -3279.93471496166     IErMin=10 ErrMin= 1.05D-05
 ErrMax= 1.05D-05 EMaxC= 1.00D-01 BMatC= 4.78D-08 BMatP= 3.50D-07
 IDIUse=1 WtCom= 1.00D+00 WtEn= 0.00D+00
 Coeff-Com:  0.974D-04-0.220D-03-0.138D-03-0.419D-03 0.360D-02 0.108D-01
 Coeff-Com:  0.442D-01 0.996D-01 0.313D+00 0.529D+00
 Coeff:      0.974D-04-0.220D-03-0.138D-03-0.419D-03 0.360D-02 0.108D-01
 Coeff:      0.442D-01 0.996D-01 0.313D+00 0.529D+00
 Gap=     0.187 Goal=   None    Shift=    0.000
 RMSDP=5.78D-06 MaxDP=5.65D-04 DE=-2.78D-07 OVMax= 1.04D-04

 Cycle  11  Pass 1  IDiag  1:
 RMSU=  1.15D-06    CP:  9.43D-01  4.28D-01  9.25D-01  5.95D-01  6.58D-01
                    CP:  6.36D-01  7.53D-01  6.05D-01  8.38D-01  6.66D-01
 E= -3279.93471500508     Delta-E=       -0.000000043425 Rises=F Damp=F
 DIIS: error= 1.83D-06 at cycle  11 NSaved=  11.
 NSaved=11 IEnMin=11 EnMin= -3279.93471500508     IErMin=11 ErrMin= 1.83D-06
 ErrMax= 1.83D-06 EMaxC= 1.00D-01 BMatC= 2.33D-09 BMatP= 4.78D-08
 IDIUse=1 WtCom= 1.00D+00 WtEn= 0.00D+00
 Coeff-Com:  0.177D-04-0.422D-04-0.439D-04-0.165D-03 0.428D-03 0.172D-02
 Coeff-Com:  0.956D-02 0.248D-01 0.101D+00 0.249D+00 0.614D+00
 Coeff:      0.177D-04-0.422D-04-0.439D-04-0.165D-03 0.428D-03 0.172D-02
 Coeff:      0.956D-02 0.248D-01 0.101D+00 0.249D+00 0.614D+00
 Gap=     0.187 Goal=   None    Shift=    0.000
 RMSDP=1.16D-06 MaxDP=1.72D-04 DE=-4.34D-08 OVMax= 1.90D-05

 Cycle  12  Pass 1  IDiag  1:
 RMSU=  2.95D-07    CP:  9.43D-01  4.28D-01  9.25D-01  5.95D-01  6.58D-01
                    CP:  6.36D-01  7.53D-01  6.08D-01  8.26D-01  6.90D-01
                    CP:  7.86D-01
 E= -3279.93471500713     Delta-E=       -0.000000002050 Rises=F Damp=F
 DIIS: error= 1.03D-06 at cycle  12 NSaved=  12.
 NSaved=12 IEnMin=12 EnMin= -3279.93471500713     IErMin=12 ErrMin= 1.03D-06
 ErrMax= 1.03D-06 EMaxC= 1.00D-01 BMatC= 3.88D-10 BMatP= 2.33D-09
 IDIUse=1 WtCom= 1.00D+00 WtEn= 0.00D+00
 Coeff-Com: -0.186D-05 0.315D-05-0.172D-04-0.465D-04-0.192D-03-0.282D-03
 Coeff-Com:  0.370D-03 0.275D-02 0.212D-01 0.753D-01 0.331D+00 0.570D+00
 Coeff:     -0.186D-05 0.315D-05-0.172D-04-0.465D-04-0.192D-03-0.282D-03
 Coeff:      0.370D-03 0.275D-02 0.212D-01 0.753D-01 0.331D+00 0.570D+00
 Gap=     0.188 Goal=   None    Shift=    0.000
 RMSDP=2.73D-07 MaxDP=2.38D-05 DE=-2.05D-09 OVMax= 4.70D-06

 Cycle  13  Pass 1  IDiag  1:
 RMSU=  9.81D-08    CP:  9.43D-01  4.28D-01  9.25D-01  5.95D-01  6.58D-01
                    CP:  6.36D-01  7.53D-01  6.08D-01  8.32D-01  6.93D-01
                    CP:  8.04D-01  7.29D-01
 E= -3279.93471500738     Delta-E=       -0.000000000249 Rises=F Damp=F
 DIIS: error= 3.68D-07 at cycle  13 NSaved=  13.
 NSaved=13 IEnMin=13 EnMin= -3279.93471500738     IErMin=13 ErrMin= 3.68D-07
 ErrMax= 3.68D-07 EMaxC= 1.00D-01 BMatC= 4.05D-11 BMatP= 3.88D-10
 IDIUse=1 WtCom= 1.00D+00 WtEn= 0.00D+00
 Coeff-Com: -0.314D-05 0.661D-05-0.591D-05-0.716D-05-0.162D-03-0.345D-03
 Coeff-Com: -0.788D-03-0.109D-02 0.124D-02 0.148D-01 0.119D+00 0.304D+00
 Coeff-Com:  0.563D+00
 Coeff:     -0.314D-05 0.661D-05-0.591D-05-0.716D-05-0.162D-03-0.345D-03
 Coeff:     -0.788D-03-0.109D-02 0.124D-02 0.148D-01 0.119D+00 0.304D+00
 Coeff:      0.563D+00
 Gap=     0.188 Goal=   None    Shift=    0.000
 RMSDP=1.38D-07 MaxDP=2.31D-05 DE=-2.49D-10 OVMax= 1.63D-06

 Cycle  14  Pass 1  IDiag  1:
 RMSU=  2.81D-08    CP:  9.43D-01  4.28D-01  9.25D-01  5.95D-01  6.58D-01
                    CP:  6.36D-01  7.53D-01  6.08D-01  8.34D-01  6.99D-01
                    CP:  8.18D-01  7.50D-01  7.52D-01
 E= -3279.93471500740     Delta-E=       -0.000000000015 Rises=F Damp=F
 DIIS: error= 8.25D-08 at cycle  14 NSaved=  14.
 NSaved=14 IEnMin=14 EnMin= -3279.93471500740     IErMin=14 ErrMin= 8.25D-08
 ErrMax= 8.25D-08 EMaxC= 1.00D-01 BMatC= 3.99D-12 BMatP= 4.05D-11
 IDIUse=1 WtCom= 1.00D+00 WtEn= 0.00D+00
 Coeff-Com: -0.120D-05 0.249D-05-0.198D-05 0.119D-05-0.622D-04-0.145D-03
 Coeff-Com: -0.414D-03-0.789D-03-0.128D-02-0.512D-03 0.242D-01 0.895D-01
 Coeff-Com:  0.298D+00 0.591D+00
 Coeff:     -0.120D-05 0.249D-05-0.198D-05 0.119D-05-0.622D-04-0.145D-03
 Coeff:     -0.414D-03-0.789D-03-0.128D-02-0.512D-03 0.242D-01 0.895D-01
 Coeff:      0.298D+00 0.591D+00
 Gap=     0.188 Goal=   None    Shift=    0.000
 RMSDP=6.93D-08 MaxDP=1.48D-05 DE=-1.46D-11 OVMax= 5.35D-07

 Cycle  15  Pass 1  IDiag  1:
 RMSU=  9.29D-09    CP:  9.43D-01  4.28D-01  9.25D-01  5.95D-01  6.58D-01
                    CP:  6.36D-01  7.53D-01  6.08D-01  8.33D-01  6.98D-01
                    CP:  8.18D-01  7.58D-01  7.65D-01  7.03D-01
 E= -3279.93471500749     Delta-E=       -0.000000000096 Rises=F Damp=F
 DIIS: error= 2.48D-08 at cycle  15 NSaved=  15.
 NSaved=15 IEnMin=15 EnMin= -3279.93471500749     IErMin=15 ErrMin= 2.48D-08
 ErrMax= 2.48D-08 EMaxC= 1.00D-01 BMatC= 1.75D-13 BMatP= 3.99D-12
 IDIUse=1 WtCom= 1.00D+00 WtEn= 0.00D+00
 Coeff-Com: -0.218D-06 0.440D-06-0.499D-06 0.718D-06-0.122D-04-0.319D-04
 Coeff-Com: -0.100D-03-0.219D-03-0.467D-03-0.113D-02 0.202D-02 0.143D-01
 Coeff-Com:  0.806D-01 0.243D+00 0.662D+00
 Coeff:     -0.218D-06 0.440D-06-0.499D-06 0.718D-06-0.122D-04-0.319D-04
 Coeff:     -0.100D-03-0.219D-03-0.467D-03-0.113D-02 0.202D-02 0.143D-01
 Coeff:      0.806D-01 0.243D+00 0.662D+00
 Gap=     0.188 Goal=   None    Shift=    0.000
 RMSDP=1.18D-08 MaxDP=1.25D-06 DE=-9.64D-11 OVMax= 2.18D-07

 Cycle  16  Pass 1  IDiag  1:
 RMSU=  3.62D-09    CP:  9.43D-01  4.28D-01  9.25D-01  5.95D-01  6.58D-01
                    CP:  6.36D-01  7.53D-01  6.08D-01  8.33D-01  6.97D-01
                    CP:  8.18D-01  7.64D-01  7.65D-01  7.06D-01  8.13D-01
 E= -3279.93471500745     Delta-E=        0.000000000045 Rises=F Damp=F
 DIIS: error= 1.38D-08 at cycle  16 NSaved=  16.
 NSaved=16 IEnMin=15 EnMin= -3279.93471500749     IErMin=16 ErrMin= 1.38D-08
 ErrMax= 1.38D-08 EMaxC= 1.00D-01 BMatC= 5.45D-14 BMatP= 1.75D-13
 IDIUse=1 WtCom= 1.00D+00 WtEn= 0.00D+00
 Coeff-Com: -0.501D-08 0.136D-07 0.641D-07 0.216D-06 0.126D-07-0.237D-05
 Coeff-Com: -0.126D-04-0.386D-04-0.135D-03-0.675D-03-0.216D-02-0.381D-02
 Coeff-Com:  0.726D-02 0.664D-01 0.399D+00 0.534D+00
 Coeff:     -0.501D-08 0.136D-07 0.641D-07 0.216D-06 0.126D-07-0.237D-05
 Coeff:     -0.126D-04-0.386D-04-0.135D-03-0.675D-03-0.216D-02-0.381D-02
 Coeff:      0.726D-02 0.664D-01 0.399D+00 0.534D+00
 Gap=     0.188 Goal=   None    Shift=    0.000
 RMSDP=6.03D-09 MaxDP=1.14D-06 DE= 4.46D-11 OVMax= 1.20D-07

 Cycle  17  Pass 1  IDiag  1:
 RMSU=  8.73D-10    CP:  9.43D-01  4.28D-01  9.25D-01  5.95D-01  6.58D-01
                    CP:  6.36D-01  7.53D-01  6.08D-01  8.33D-01  6.98D-01
                    CP:  8.19D-01  7.63D-01  7.71D-01  7.18D-01  8.41D-01
                    CP:  6.52D-01
 E= -3279.93471500746     Delta-E=       -0.000000000015 Rises=F Damp=F
 DIIS: error= 4.36D-09 at cycle  17 NSaved=  17.
 NSaved=17 IEnMin=15 EnMin= -3279.93471500749     IErMin=17 ErrMin= 4.36D-09
 ErrMax= 4.36D-09 EMaxC= 1.00D-01 BMatC= 3.61D-15 BMatP= 5.45D-14
 IDIUse=1 WtCom= 1.00D+00 WtEn= 0.00D+00
 Large coefficients: NSaved= 17 BigCof=    0.00 CofMax=   10.00 Det=-9.15D-15
 Inversion failed.  Reducing to 16 matrices.
 Coeff-Com:  0.513D-08 0.109D-06 0.502D-07 0.535D-06 0.223D-06-0.202D-05
 Coeff-Com: -0.938D-05-0.499D-04-0.273D-03-0.120D-02-0.277D-02-0.236D-02
 Coeff-Com:  0.152D-01 0.150D+00 0.277D+00 0.565D+00
 Coeff:      0.513D-08 0.109D-06 0.502D-07 0.535D-06 0.223D-06-0.202D-05
 Coeff:     -0.938D-05-0.499D-04-0.273D-03-0.120D-02-0.277D-02-0.236D-02
 Coeff:      0.152D-01 0.150D+00 0.277D+00 0.565D+00
 Gap=     0.188 Goal=   None    Shift=    0.000
 RMSDP=1.01D-09 MaxDP=1.11D-07 DE=-1.55D-11 OVMax= 2.66D-08

 SCF Done:  E(RB3LYP) =  -3279.93471501     A.U. after   17 cycles
             Convg  =    0.1007D-08             -V/T =  2.0016
 KE= 3.274762406645D+03 PE=-1.052712562778D+04 EE= 2.608924873198D+03
 Leave Link  502 at Fri Jul 05 12:24:25 2019, MaxMem=  209715200 cpu:     534.0
 (Enter C:\G09W\l601.exe)
 Copying SCF densities to generalized density rwf, IOpCl= 0 IROHF=0.

 **********************************************************************

            Population analysis using the SCF density.

 **********************************************************************

 Orbital symmetries:
       Occupied  (A) (A) (A) (A) (A) (A) (A) (A) (A) (A) (A) (A)
                 (A) (A) (A) (A) (A) (A) (A) (A) (A) (A) (A) (A)
                 (A) (A) (A) (A) (A) (A) (A) (A) (A) (A) (A) (A)
                 (A) (A) (A) (A) (A) (A) (A) (A) (A) (A) (A) (A)
                 (A) (A) (A) (A) (A) (A) (A) (A) (A) (A) (A) (A)
                 (A) (A) (A) (A) (A) (A) (A) (A) (A) (A) (A)
       Virtual   (A) (A) (A) (A) (A) (A) (A) (A) (A) (A) (A) (A)
                 (A) (A) (A) (A) (A) (A) (A) (A) (A) (A) (A) (A)
                 (A) (A) (A) (A) (A) (A) (A) (A) (A) (A) (A) (A)
                 (A) (A) (A) (A) (A) (A) (A) (A) (A) (A) (A) (A)
                 (A) (A) (A) (A) (A) (A) (A) (A) (A) (A) (A) (A)
                 (A) (A) (A) (A) (A) (A) (A) (A) (A) (A) (A) (A)
                 (A) (A) (A) (A) (A) (A) (A) (A) (A) (A) (A) (A)
                 (A) (A) (A) (A) (A) (A) (A) (A) (A) (A) (A) (A)
                 (A) (A) (A) (A) (A) (A) (A) (A) (A) (A) (A) (A)
                 (A) (A) (A) (A) (A) (A) (A) (A) (A) (A) (A) (A)
                 (A) (A) (A) (A) (A) (A) (A) (A) (A) (A) (A) (A)
                 (A) (A) (A) (A) (A) (A) (A) (A) (A) (A) (A) (A)
                 (A) (A) (A) (A) (A) (A) (A) (A) (A) (A) (A) (A)
                 (A) (A) (A) (A) (A) (A) (A) (A) (A) (A) (A) (A)
                 (A) (A) (A) (A) (A) (A) (A) (A) (A) (A) (A) (A)
                 (A) (A) (A) (A) (A) (A) (A) (A) (A) (A) (A) (A)
                 (A) (A) (A) (A) (A) (A) (A) (A) (A) (A) (A) (A)
                 (A) (A) (A) (A) (A) (A) (A) (A) (A) (A) (A) (A)
                 (A) (A) (A) (A) (A) (A) (A) (A) (A) (A) (A) (A)
                 (A) (A) (A) (A) (A) (A) (A) (A) (A) (A) (A) (A)
                 (A) (A) (A) (A) (A) (A) (A) (A) (A) (A) (A) (A)
                 (A) (A) (A) (A) (A) (A) (A) (A) (A) (A) (A) (A)
                 (A) (A) (A) (A) (A) (A) (A) (A) (A) (A) (A) (A)
                 (A) (A) (A) (A) (A) (A) (A) (A) (A) (A) (A) (A)
                 (A) (A) (A) (A) (A) (A) (A) (A) (A) (A) (A) (A)
                 (A) (A) (A) (A) (A) (A) (A) (A) (A) (A) (A) (A)
                 (A) (A) (A) (A) (A) (A) (A) (A) (A) (A) (A) (A)
                 (A) (A) (A) (A) (A) (A) (A) (A) (A) (A) (A) (A)
                 (A) (A) (A) (A) (A) (A) (A) (A) (A) (A) (A) (A)
                 (A) (A) (A) (A) (A) (A) (A) (A) (A) (A) (A) (A)
                 (A) (A) (A) (A) (A) (A) (A) (A) (A) (A) (A) (A)
                 (A) (A) (A) (A)
 The electronic state is 1-A.
 Alpha  occ. eigenvalues -- -482.83901 -62.49173 -56.31212 -56.30816 -56.30816
 Alpha  occ. eigenvalues --  -19.18063 -19.16608 -19.09617 -14.36847 -10.29249
 Alpha  occ. eigenvalues --  -10.26311 -10.25499 -10.25193 -10.24409 -10.23524
 Alpha  occ. eigenvalues --  -10.21664 -10.20561 -10.20395 -10.20043 -10.19655
 Alpha  occ. eigenvalues --   -8.70155  -6.53311  -6.51988  -6.51976  -2.64410
 Alpha  occ. eigenvalues --   -2.64019  -2.64006  -2.62959  -2.62958  -1.12237
 Alpha  occ. eigenvalues --   -1.10777  -1.03683  -0.98999  -0.89017  -0.84690
 Alpha  occ. eigenvalues --   -0.79618  -0.78718  -0.77391  -0.73925  -0.72648
 Alpha  occ. eigenvalues --   -0.65374  -0.64120  -0.61798  -0.59285  -0.56940
 Alpha  occ. eigenvalues --   -0.54270  -0.53279  -0.52930  -0.51655  -0.50274
 Alpha  occ. eigenvalues --   -0.50013  -0.48120  -0.46092  -0.45255  -0.43640
 Alpha  occ. eigenvalues --   -0.42956  -0.42060  -0.41452  -0.40361  -0.40138
 Alpha  occ. eigenvalues --   -0.38019  -0.37988  -0.35764  -0.35648  -0.31803
 Alpha  occ. eigenvalues --   -0.30419  -0.30245  -0.29010  -0.27736  -0.25654
 Alpha  occ. eigenvalues --   -0.23245
 Alpha virt. eigenvalues --   -0.04495  -0.03373  -0.02443  -0.02383  -0.01282
 Alpha virt. eigenvalues --   -0.01000  -0.00266   0.00946   0.01111   0.01319
 Alpha virt. eigenvalues --    0.01869   0.02291   0.03610   0.04063   0.04142
 Alpha virt. eigenvalues --    0.04720   0.05925   0.06038   0.06302   0.06556
 Alpha virt. eigenvalues --    0.07203   0.07978   0.08067   0.08356   0.08896
 Alpha virt. eigenvalues --    0.09046   0.09853   0.09938   0.10381   0.10412
 Alpha virt. eigenvalues --    0.10852   0.10930   0.11236   0.11440   0.12151
 Alpha virt. eigenvalues --    0.12460   0.12943   0.13011   0.13290   0.13421
 Alpha virt. eigenvalues --    0.13903   0.14165   0.14442   0.14612   0.15134
 Alpha virt. eigenvalues --    0.15370   0.15604   0.15879   0.16197   0.16821
 Alpha virt. eigenvalues --    0.17316   0.17906   0.18488   0.18738   0.19050
 Alpha virt. eigenvalues --    0.19417   0.20409   0.20831   0.21265   0.21820
 Alpha virt. eigenvalues --    0.22136   0.22900   0.23261   0.23489   0.23691
 Alpha virt. eigenvalues --    0.24064   0.24359   0.25221   0.25702   0.26509
 Alpha virt. eigenvalues --    0.26986   0.27302   0.27748   0.27913   0.29090
 Alpha virt. eigenvalues --    0.29423   0.29798   0.30244   0.30413   0.30882
 Alpha virt. eigenvalues --    0.31277   0.31713   0.32096   0.32365   0.32593
 Alpha virt. eigenvalues --    0.32807   0.33760   0.34306   0.34434   0.35076
 Alpha virt. eigenvalues --    0.35815   0.36469   0.36815   0.37345   0.37811
 Alpha virt. eigenvalues --    0.38379   0.39307   0.41252   0.42048   0.42488
 Alpha virt. eigenvalues --    0.43047   0.43285   0.43807   0.45177   0.47144
 Alpha virt. eigenvalues --    0.49520   0.50048   0.50755   0.51808   0.53684
 Alpha virt. eigenvalues --    0.54185   0.54668   0.55354   0.56342   0.56410
 Alpha virt. eigenvalues --    0.57574   0.57892   0.58222   0.59393   0.59916
 Alpha virt. eigenvalues --    0.60792   0.61825   0.61995   0.63072   0.63344
 Alpha virt. eigenvalues --    0.64064   0.64928   0.65509   0.66497   0.67164
 Alpha virt. eigenvalues --    0.67397   0.68759   0.68914   0.69640   0.69723
 Alpha virt. eigenvalues --    0.71587   0.72770   0.73545   0.74145   0.74947
 Alpha virt. eigenvalues --    0.76145   0.76665   0.78275   0.78322   0.79274
 Alpha virt. eigenvalues --    0.79607   0.82300   0.82462   0.84111   0.84118
 Alpha virt. eigenvalues --    0.85976   0.87756   0.88271   0.88806   0.89871
 Alpha virt. eigenvalues --    0.90206   0.92041   0.93761   0.94173   0.96010
 Alpha virt. eigenvalues --    0.96691   0.97473   0.98883   1.00157   1.00302
 Alpha virt. eigenvalues --    1.01333   1.01929   1.03368   1.04990   1.05469
 Alpha virt. eigenvalues --    1.06408   1.06827   1.08300   1.09243   1.10207
 Alpha virt. eigenvalues --    1.11205   1.12929   1.14769   1.18183   1.19749
 Alpha virt. eigenvalues --    1.21827   1.22641   1.23274   1.25051   1.26728
 Alpha virt. eigenvalues --    1.26928   1.27247   1.27995   1.30209   1.33914
 Alpha virt. eigenvalues --    1.36590   1.39457   1.39953   1.41580   1.42061
 Alpha virt. eigenvalues --    1.42322   1.45942   1.46208   1.48593   1.52072
 Alpha virt. eigenvalues --    1.53556   1.54403   1.54856   1.55601   1.58056
 Alpha virt. eigenvalues --    1.58775   1.59792   1.60962   1.62739   1.64113
 Alpha virt. eigenvalues --    1.64519   1.67220   1.67697   1.69186   1.69787
 Alpha virt. eigenvalues --    1.70248   1.71340   1.72871   1.74776   1.75658
 Alpha virt. eigenvalues --    1.76688   1.77289   1.80808   1.81705   1.81862
 Alpha virt. eigenvalues --    1.83715   1.86842   1.87008   1.88548   1.89142
 Alpha virt. eigenvalues --    1.90232   1.90737   1.92735   1.95894   1.96947
 Alpha virt. eigenvalues --    1.99599   2.01761   2.02206   2.03296   2.04432
 Alpha virt. eigenvalues --    2.05580   2.06925   2.07218   2.09033   2.09834
 Alpha virt. eigenvalues --    2.10237   2.12314   2.14707   2.16586   2.17608
 Alpha virt. eigenvalues --    2.19147   2.19820   2.20978   2.27505   2.28509
 Alpha virt. eigenvalues --    2.29390   2.32431   2.39673   2.44061   2.44731
 Alpha virt. eigenvalues --    2.45711   2.46143   2.47954   2.49434   2.52596
 Alpha virt. eigenvalues --    2.53355   2.53989   2.54988   2.57398   2.60410
 Alpha virt. eigenvalues --    2.61531   2.63173   2.63802   2.65304   2.67006
 Alpha virt. eigenvalues --    2.68348   2.71036   2.72917   2.75341   2.76028
 Alpha virt. eigenvalues --    2.78485   2.79303   2.79615   2.81622   2.85186
 Alpha virt. eigenvalues --    2.87212   2.88158   2.89013   2.90357   2.92828
 Alpha virt. eigenvalues --    2.94084   2.95192   2.96386   2.99546   3.01218
 Alpha virt. eigenvalues --    3.02760   3.04185   3.06012   3.10183   3.10594
 Alpha virt. eigenvalues --    3.12073   3.14988   3.15624   3.16623   3.18599
 Alpha virt. eigenvalues --    3.19526   3.24409   3.25850   3.26224   3.31404
 Alpha virt. eigenvalues --    3.39616   3.41306   3.42762   3.47620   3.48672
 Alpha virt. eigenvalues --    3.50145   3.61731   3.62010   3.64693   3.68376
 Alpha virt. eigenvalues --    3.78013   3.78078   3.79932   3.83618   3.93699
 Alpha virt. eigenvalues --    3.98359   4.00779   4.02304   4.06243   4.08744
 Alpha virt. eigenvalues --    4.12771   4.13891   4.14796   4.17400   4.19962
 Alpha virt. eigenvalues --    4.23048   4.23565   4.34120   4.39468   4.59964
 Alpha virt. eigenvalues --    4.84207   4.85094   5.01568   5.02979   5.07612
 Alpha virt. eigenvalues --    5.10549   5.19718   5.38817   5.44696   5.70860
 Alpha virt. eigenvalues --    5.81485   5.91625   6.78857   7.56223   7.65751
 Alpha virt. eigenvalues --    7.77665  23.60977  23.64899  23.86528  23.93146
 Alpha virt. eigenvalues --   23.94460  23.94963  23.96545  24.06413  24.11859
 Alpha virt. eigenvalues --   24.20130  24.21400  35.66588  48.03576  49.91782
 Alpha virt. eigenvalues --   49.95003  50.09343 289.75897 289.85329 289.99607
 Alpha virt. eigenvalues -- 1020.85222
          Condensed to atoms (all electrons):
              1          2          3          4          5          6
     1  C   11.890296  -0.460822  -5.573403   1.543868  -0.211501  -1.640796
     2  C   -0.460822  13.698000  -1.364408  -0.548168  -0.852364  -1.749464
     3  C   -5.573403  -1.364408  13.496462  -1.334587  -1.992714   2.401920
     4  C    1.543868  -0.548168  -1.334587  10.683696  -0.304821  -4.655511
     5  C   -0.211501  -0.852364  -1.992714  -0.304821  10.756266  -0.868484
     6  C   -1.640796  -1.749464   2.401920  -4.655511  -0.868484  12.688822
     7  N   -0.164613  -0.588556  -0.029613  -0.036879   0.032976   0.097619
     8  C   -0.121150  -0.281966   0.336010  -0.142974  -0.296744   0.444085
     9  C    0.104565  -1.204430  -0.163605  -0.092138   0.078770  -0.210180
    10  C   -0.128234   0.408874  -0.046769  -0.011392   0.019197  -0.124907
    11  C    0.051971  -0.236590   0.035574   0.018162  -0.002589   0.029025
    12  O   -0.022172   0.042837  -0.012901  -0.009564  -0.006317   0.000056
    13  Br  -0.003834   0.062494  -0.010094  -0.004042  -0.001008  -0.005063
    14  O    0.001827   0.001196   0.000959   0.000324   0.000230   0.000008
    15  O   -0.002731   0.016303   0.004384   0.271246   0.337331  -0.680188
    16  C    0.065407  -0.045613  -0.174702  -0.187474   0.110995   0.010164
    17  H    0.615454  -0.072761  -0.123081   0.090204   0.044006  -0.200656
    18  H   -0.078915  -0.113264   0.484565  -0.078567   0.056536   0.076843
    19  H    0.061220   0.042124  -0.071947   0.542846  -0.163779  -0.091054
    20  H   -0.133363   0.023851   0.085564  -0.158342  -0.140167   0.642935
    21  H   -0.028758  -0.245911   0.026471   0.004222   0.009821   0.041273
    22  H   -0.110008  -0.002659   0.145833  -0.022908  -0.005267   0.008842
    23  H    0.137157  -0.001185  -0.147295   0.027498   0.036773  -0.028786
    24  H   -0.005793   0.004907   0.004924   0.035288  -0.040017  -0.018214
    25  H    0.000902  -0.003662  -0.008324  -0.009508   0.045948   0.009374
    26  H   -0.003316   0.001202   0.000964   0.018617  -0.023728  -0.005589
              7          8          9         10         11         12
     1  C   -0.164613  -0.121150   0.104565  -0.128234   0.051971  -0.022172
     2  C   -0.588556  -0.281966  -1.204430   0.408874  -0.236590   0.042837
     3  C   -0.029613   0.336010  -0.163605  -0.046769   0.035574  -0.012901
     4  C   -0.036879  -0.142974  -0.092138  -0.011392   0.018162  -0.009564
     5  C    0.032976  -0.296744   0.078770   0.019197  -0.002589  -0.006317
     6  C    0.097619   0.444085  -0.210180  -0.124907   0.029025   0.000056
     7  N    7.519495   0.102465  -0.133913  -0.460445   0.212871  -0.023960
     8  C    0.102465  19.057995 -12.259235  -2.261514   1.771538   0.241013
     9  C   -0.133913 -12.259235  20.203543   1.683779  -1.673173  -0.442609
    10  C   -0.460445  -2.261514   1.683779   7.069346  -0.995685   0.295497
    11  C    0.212871   1.771538  -1.673173  -0.995685   6.255334   0.084979
    12  O   -0.023960   0.241013  -0.442609   0.295497   0.084979   8.182657
    13  Br  -0.065397  -0.181978   0.349795   0.032273  -0.136840   0.008379
    14  O    0.002374  -0.065228  -0.115568   0.039544   0.458432  -0.092467
    15  O    0.001981   0.000891   0.000361   0.000814   0.000037   0.000001
    16  C   -0.002429  -0.010123   0.002243   0.001576  -0.000123  -0.000060
    17  H   -0.025412  -0.014342  -0.021066   0.017038  -0.002895   0.000078
    18  H   -0.017553  -0.010080  -0.024720   0.010028  -0.000483   0.000207
    19  H   -0.009456   0.001947  -0.000488   0.001690  -0.000877   0.000102
    20  H   -0.005282   0.003668  -0.002619  -0.000080  -0.000227   0.000165
    21  H    0.443332   0.184955  -0.163766  -0.060412   0.036259  -0.003984
    22  H    0.009515   0.017175  -0.071167   0.355806   0.008552  -0.062138
    23  H    0.003358   0.023412  -0.047315   0.305164   0.019385  -0.062140
    24  H    0.000594   0.000731   0.000541   0.000423   0.000001   0.000001
    25  H   -0.000144  -0.000151  -0.000028  -0.000011   0.000001  -0.000001
    26  H   -0.000114  -0.001148  -0.000614  -0.000663   0.000013  -0.000004
             13         14         15         16         17         18
     1  C   -0.003834   0.001827  -0.002731   0.065407   0.615454  -0.078915
     2  C    0.062494   0.001196   0.016303  -0.045613  -0.072761  -0.113264
     3  C   -0.010094   0.000959   0.004384  -0.174702  -0.123081   0.484565
     4  C   -0.004042   0.000324   0.271246  -0.187474   0.090204  -0.078567
     5  C   -0.001008   0.000230   0.337331   0.110995   0.044006   0.056536
     6  C   -0.005063   0.000008  -0.680188   0.010164  -0.200656   0.076843
     7  N   -0.065397   0.002374   0.001981  -0.002429  -0.025412  -0.017553
     8  C   -0.181978  -0.065228   0.000891  -0.010123  -0.014342  -0.010080
     9  C    0.349795  -0.115568   0.000361   0.002243  -0.021066  -0.024720
    10  C    0.032273   0.039544   0.000814   0.001576   0.017038   0.010028
    11  C   -0.136840   0.458432   0.000037  -0.000123  -0.002895  -0.000483
    12  O    0.008379  -0.092467   0.000001  -0.000060   0.000078   0.000207
    13  Br  35.043648  -0.009341  -0.000010   0.000016   0.001926   0.001399
    14  O   -0.009341   8.089970   0.000000   0.000001   0.000099   0.000111
    15  O   -0.000010   0.000000   8.182580   0.210186  -0.001645  -0.002648
    16  C    0.000016   0.000001   0.210186   5.114718  -0.000001   0.003454
    17  H    0.001926   0.000099  -0.001645  -0.000001   0.539905  -0.004776
    18  H    0.001399   0.000111  -0.002648   0.003454  -0.004776   0.538445
    19  H    0.000012  -0.000012  -0.018782   0.002924   0.003694  -0.022298
    20  H   -0.000080  -0.000011  -0.026483   0.000304  -0.024632   0.003598
    21  H    0.011448  -0.000185   0.000101  -0.000859  -0.002000   0.000468
    22  H    0.001382   0.001623  -0.000050  -0.000743   0.000223  -0.004967
    23  H    0.000612   0.001951   0.000071   0.001160  -0.001679   0.001431
    24  H   -0.000004   0.000000  -0.035312   0.407227  -0.000358  -0.000233
    25  H    0.000001   0.000000  -0.068546   0.403363   0.000123   0.000317
    26  H   -0.000003   0.000000  -0.039557   0.403502  -0.000097   0.000943
             19         20         21         22         23         24
     1  C    0.061220  -0.133363  -0.028758  -0.110008   0.137157  -0.005793
     2  C    0.042124   0.023851  -0.245911  -0.002659  -0.001185   0.004907
     3  C   -0.071947   0.085564   0.026471   0.145833  -0.147295   0.004924
     4  C    0.542846  -0.158342   0.004222  -0.022908   0.027498   0.035288
     5  C   -0.163779  -0.140167   0.009821  -0.005267   0.036773  -0.040017
     6  C   -0.091054   0.642935   0.041273   0.008842  -0.028786  -0.018214
     7  N   -0.009456  -0.005282   0.443332   0.009515   0.003358   0.000594
     8  C    0.001947   0.003668   0.184955   0.017175   0.023412   0.000731
     9  C   -0.000488  -0.002619  -0.163766  -0.071167  -0.047315   0.000541
    10  C    0.001690  -0.000080  -0.060412   0.355806   0.305164   0.000423
    11  C   -0.000877  -0.000227   0.036259   0.008552   0.019385   0.000001
    12  O    0.000102   0.000165  -0.003984  -0.062138  -0.062140   0.000001
    13  Br   0.000012  -0.000080   0.011448   0.001382   0.000612  -0.000004
    14  O   -0.000012  -0.000011  -0.000185   0.001623   0.001951   0.000000
    15  O   -0.018782  -0.026483   0.000101  -0.000050   0.000071  -0.035312
    16  C    0.002924   0.000304  -0.000859  -0.000743   0.001160   0.407227
    17  H    0.003694  -0.024632  -0.002000   0.000223  -0.001679  -0.000358
    18  H   -0.022298   0.003598   0.000468  -0.004967   0.001431  -0.000233
    19  H    0.550658  -0.004300  -0.001558  -0.000267  -0.000485  -0.008790
    20  H   -0.004300   0.530315  -0.000524   0.000766  -0.002866  -0.000305
    21  H   -0.001558  -0.000524   0.422387   0.000201  -0.000604   0.000117
    22  H   -0.000267   0.000766   0.000201   0.625875  -0.097548  -0.000022
    23  H   -0.000485  -0.002866  -0.000604  -0.097548   0.626260   0.000047
    24  H   -0.008790  -0.000305   0.000117  -0.000022   0.000047   0.589263
    25  H    0.002567   0.000057  -0.000024  -0.000074   0.000063  -0.023466
    26  H   -0.008135   0.000355  -0.000013   0.000068  -0.000019  -0.066956
             25         26
     1  C    0.000902  -0.003316
     2  C   -0.003662   0.001202
     3  C   -0.008324   0.000964
     4  C   -0.009508   0.018617
     5  C    0.045948  -0.023728
     6  C    0.009374  -0.005589
     7  N   -0.000144  -0.000114
     8  C   -0.000151  -0.001148
     9  C   -0.000028  -0.000614
    10  C   -0.000011  -0.000663
    11  C    0.000001   0.000013
    12  O   -0.000001  -0.000004
    13  Br   0.000001  -0.000003
    14  O    0.000000   0.000000
    15  O   -0.068546  -0.039557
    16  C    0.403363   0.403502
    17  H    0.000123  -0.000097
    18  H    0.000317   0.000943
    19  H    0.002567  -0.008135
    20  H    0.000057   0.000355
    21  H   -0.000024  -0.000013
    22  H   -0.000074   0.000068
    23  H    0.000063  -0.000019
    24  H   -0.023466  -0.066956
    25  H    0.494845  -0.023300
    26  H   -0.023300   0.589523
 Mulliken atomic charges:
              1
     1  C    0.216744
     2  C   -0.529963
     3  C    0.029811
     4  C    0.360902
     5  C   -0.619350
     6  C   -0.172075
     7  N    0.137186
     8  C   -0.539252
     9  C    0.203036
    10  C   -0.150936
    11  C    0.067349
    12  O   -0.117652
    13  Br  -0.095690
    14  O   -0.315836
    15  O   -0.150338
    16  C   -0.315116
    17  H    0.182650
    18  H    0.180160
    19  H    0.192446
    20  H    0.207702
    21  H    0.327543
    22  H    0.201955
    23  H    0.205577
    24  H    0.155404
    25  H    0.179678
    26  H    0.158066
 Sum of Mulliken atomic charges =   0.00000
 Mulliken charges with hydrogens summed into heavy atoms:
              1
     1  C    0.399394
     2  C   -0.529963
     3  C    0.209971
     4  C    0.553347
     5  C   -0.619350
     6  C    0.035626
     7  N    0.464729
     8  C   -0.539252
     9  C    0.203036
    10  C    0.256596
    11  C    0.067349
    12  O   -0.117652
    13  Br  -0.095690
    14  O   -0.315836
    15  O   -0.150338
    16  C    0.178032
 Sum of Mulliken charges with hydrogens summed into heavy atoms =   0.00000
 Electronic spatial extent (au):  <R**2>=           6773.9645
 Charge=              0.0000 electrons
 Dipole moment (field-independent basis, Debye):
    X=             -8.9282    Y=             -2.6751    Z=             -0.9965  Tot=              9.3734
 Quadrupole moment (field-independent basis, Debye-Ang):
   XX=           -113.4761   YY=           -112.6882   ZZ=            -99.4958
   XY=            -14.3908   XZ=              8.0348   YZ=             -0.2602
 Traceless Quadrupole moment (field-independent basis, Debye-Ang):
   XX=             -4.9227   YY=             -4.1349   ZZ=              9.0576
   XY=            -14.3908   XZ=              8.0348   YZ=             -0.2602
 Octapole moment (field-independent basis, Debye-Ang**2):
  XXX=           -137.1960  YYY=            -57.8865  ZZZ=              1.0246  XYY=             10.3546
  XXY=            -56.9777  XXZ=            -46.6574  XZZ=             19.3651  YZZ=             -7.1975
  YYZ=             -1.4800  XYZ=              2.1352
 Hexadecapole moment (field-independent basis, Debye-Ang**3):
 XXXX=          -6409.8685 YYYY=           -965.0524 ZZZZ=           -384.0627 XXXY=           -401.3455
 XXXZ=            274.5059 YYYX=           -224.1566 YYYZ=              4.6985 ZZZX=            -18.2290
 ZZZY=              1.4415 XXYY=          -1422.4643 XXZZ=          -1172.8120 YYZZ=           -222.5027
 XXYZ=             -1.1803 YYXZ=              0.1524 ZZXY=            -27.8961
 N-N= 1.363503632932D+03 E-N=-1.052712562856D+04  KE= 3.274762406645D+03
 No NMR shielding tensors so no spin-rotation constants.
 Leave Link  601 at Fri Jul 05 12:24:26 2019, MaxMem=  209715200 cpu:       1.0
 (Enter C:\G09W\l607.exe)
 ******************************Gaussian NBO Version 3.1******************************
             N A T U R A L   A T O M I C   O R B I T A L   A N D
          N A T U R A L   B O N D   O R B I T A L   A N A L Y S I S
 ******************************Gaussian NBO Version 3.1******************************
       /RESON  / : Allow strongly delocalized NBO set

 Analyzing the SCF density

 Job title: 8g.log                                                          

 Storage needed:    604614 in NPA,    804884 in NBO ( 209713152 available)


 NATURAL POPULATIONS:  Natural atomic orbital occupancies 
                                                          
   NAO  Atom  No  lang   Type(AO)    Occupancy      Energy
 ----------------------------------------------------------
     1    C    1  S      Cor( 1S)     1.99904     -10.05195
     2    C    1  S      Val( 2S)     0.94324      -0.17421
     3    C    1  S      Ryd( 4S)     0.00130       0.96557
     4    C    1  S      Ryd( 3S)     0.00010       0.59243
     5    C    1  S      Ryd( 5S)     0.00001      23.10159
     6    C    1  px     Val( 2p)     1.09864      -0.07396
     7    C    1  px     Ryd( 4p)     0.00415       1.05240
     8    C    1  px     Ryd( 3p)     0.00023       0.48643
     9    C    1  px     Ryd( 5p)     0.00013       3.02129
    10    C    1  py     Val( 2p)     0.98277      -0.13401
    11    C    1  py     Ryd( 4p)     0.00121       0.56579
    12    C    1  py     Ryd( 3p)     0.00044       0.35900
    13    C    1  py     Ryd( 5p)     0.00002       2.69031
    14    C    1  pz     Val( 2p)     1.14195      -0.07409
    15    C    1  pz     Ryd( 4p)     0.00506       1.09193
    16    C    1  pz     Ryd( 3p)     0.00020       0.47871
    17    C    1  pz     Ryd( 5p)     0.00009       3.02690
    18    C    1  dxy    Ryd( 3d)     0.00062       1.68753
    19    C    1  dxz    Ryd( 3d)     0.00074       2.51606
    20    C    1  dyz    Ryd( 3d)     0.00050       1.65568
    21    C    1  dx2y2  Ryd( 3d)     0.00046       2.23503
    22    C    1  dz2    Ryd( 3d)     0.00062       2.43489

    23    C    2  S      Cor( 1S)     1.99889     -10.09319
    24    C    2  S      Val( 2S)     0.82976      -0.13760
    25    C    2  S      Ryd( 4S)     0.00122       0.90397
    26    C    2  S      Ryd( 3S)     0.00011       0.88528
    27    C    2  S      Ryd( 5S)     0.00002      22.89849
    28    C    2  px     Val( 2p)     0.87776      -0.04969
    29    C    2  px     Ryd( 4p)     0.00633       1.33916
    30    C    2  px     Ryd( 3p)     0.00012       0.70412
    31    C    2  px     Ryd( 5p)     0.00011       3.08355
    32    C    2  py     Val( 2p)     1.08702      -0.14181
    33    C    2  py     Ryd( 4p)     0.00423       0.66083
    34    C    2  py     Ryd( 3p)     0.00017       0.52019
    35    C    2  py     Ryd( 5p)     0.00002       2.73730
    36    C    2  pz     Val( 2p)     1.09787      -0.08682
    37    C    2  pz     Ryd( 4p)     0.00328       1.05608
    38    C    2  pz     Ryd( 3p)     0.00024       0.53172
    39    C    2  pz     Ryd( 5p)     0.00022       3.01956
    40    C    2  dxy    Ryd( 3d)     0.00056       1.79884
    41    C    2  dxz    Ryd( 3d)     0.00150       2.61716
    42    C    2  dyz    Ryd( 3d)     0.00059       1.65400
    43    C    2  dx2y2  Ryd( 3d)     0.00077       2.18013
    44    C    2  dz2    Ryd( 3d)     0.00079       2.43115

    45    C    3  S      Cor( 1S)     1.99905     -10.05337
    46    C    3  S      Val( 2S)     0.94076      -0.17503
    47    C    3  S      Ryd( 4S)     0.00153       0.95413
    48    C    3  S      Ryd( 3S)     0.00013       0.76118
    49    C    3  S      Ryd( 5S)     0.00001      22.93999
    50    C    3  px     Val( 2p)     1.08387      -0.07320
    51    C    3  px     Ryd( 4p)     0.00396       1.00643
    52    C    3  px     Ryd( 3p)     0.00026       0.48778
    53    C    3  px     Ryd( 5p)     0.00014       3.03186
    54    C    3  py     Val( 2p)     0.97894      -0.13490
    55    C    3  py     Ryd( 4p)     0.00113       0.54973
    56    C    3  py     Ryd( 3p)     0.00040       0.37699
    57    C    3  py     Ryd( 5p)     0.00003       2.69495
    58    C    3  pz     Val( 2p)     1.15532      -0.07665
    59    C    3  pz     Ryd( 4p)     0.00578       1.10124
    60    C    3  pz     Ryd( 3p)     0.00015       0.47476
    61    C    3  pz     Ryd( 5p)     0.00008       3.04412
    62    C    3  dxy    Ryd( 3d)     0.00057       1.68587
    63    C    3  dxz    Ryd( 3d)     0.00075       2.54012
    64    C    3  dyz    Ryd( 3d)     0.00049       1.65273
    65    C    3  dx2y2  Ryd( 3d)     0.00045       2.22132
    66    C    3  dz2    Ryd( 3d)     0.00062       2.41649

    67    C    4  S      Cor( 1S)     1.99906     -10.05175
    68    C    4  S      Val( 2S)     0.94183      -0.18036
    69    C    4  S      Ryd( 4S)     0.00138       0.88928
    70    C    4  S      Ryd( 3S)     0.00015       0.69648
    71    C    4  S      Ryd( 5S)     0.00002      23.12068
    72    C    4  px     Val( 2p)     1.10449      -0.08353
    73    C    4  px     Ryd( 4p)     0.00301       1.02725
    74    C    4  px     Ryd( 3p)     0.00035       0.58812
    75    C    4  px     Ryd( 5p)     0.00011       3.03518
    76    C    4  py     Val( 2p)     1.07314      -0.14107
    77    C    4  py     Ryd( 4p)     0.00178       0.52145
    78    C    4  py     Ryd( 3p)     0.00042       0.33522
    79    C    4  py     Ryd( 5p)     0.00002       2.68773
    80    C    4  pz     Val( 2p)     1.15000      -0.08136
    81    C    4  pz     Ryd( 4p)     0.00474       1.13472
    82    C    4  pz     Ryd( 3p)     0.00025       0.51153
    83    C    4  pz     Ryd( 5p)     0.00010       3.00047
    84    C    4  dxy    Ryd( 3d)     0.00044       1.67097
    85    C    4  dxz    Ryd( 3d)     0.00079       2.52745
    86    C    4  dyz    Ryd( 3d)     0.00050       1.64362
    87    C    4  dx2y2  Ryd( 3d)     0.00043       2.20427
    88    C    4  dz2    Ryd( 3d)     0.00057       2.51096

    89    C    5  S      Cor( 1S)     1.99879     -10.12605
    90    C    5  S      Val( 2S)     0.81752      -0.14040
    91    C    5  S      Ryd( 3S)     0.00100       0.94922
    92    C    5  S      Ryd( 4S)     0.00014       1.17046
    93    C    5  S      Ryd( 5S)     0.00002      22.20337
[...]
   185. RY*(  12) N   7                  0.00003     2.21750   
   186. RY*(  13) N   7                  0.00002     2.35237   
   187. RY*(  14) N   7                  0.00000    35.21285   
   188. RY*(  15) N   7                  0.00000     3.85997   
   189. RY*(  16) N   7                  0.00001     1.96295   
   190. RY*(  17) N   7                  0.00000     3.86007   
   191. RY*(   1) C   8                  0.00661     1.12362   
   192. RY*(   2) C   8                  0.00377     1.41836   
   193. RY*(   3) C   8                  0.00312     1.17599   
   194. RY*(   4) C   8                  0.00130     0.84517   
   195. RY*(   5) C   8                  0.00080     1.04407   
   196. RY*(   6) C   8                  0.00043     1.75215   
   197. RY*(   7) C   8                  0.00034     1.51060   
   198. RY*(   8) C   8                  0.00023     2.46103   
   199. RY*(   9) C   8                  0.00020     1.99379   
   200. RY*(  10) C   8                  0.00017     2.62811   
   201. RY*(  11) C   8                  0.00010     4.23621   
   202. RY*(  12) C   8                  0.00007     2.09842   
   203. RY*(  13) C   8                  0.00006     1.78796   
   204. RY*(  14) C   8                  0.00002     1.65072   
   205. RY*(  15) C   8                  0.00003     2.54114   
   206. RY*(  16) C   8                  0.00001     2.65778   
   207. RY*(  17) C   8                  0.00001    17.08561   
   208. RY*(   1) C   9                  0.00648     0.82300   
   209. RY*(   2) C   9                  0.00375     1.13974   
   210. RY*(   3) C   9                  0.00211     0.75794   
   211. RY*(   4) C   9                  0.00194     0.98580   
   212. RY*(   5) C   9                  0.00092     1.02415   
   213. RY*(   6) C   9                  0.00065     0.90157   
   214. RY*(   7) C   9                  0.00042     1.48522   
   215. RY*(   8) C   9                  0.00035     1.67038   
   216. RY*(   9) C   9                  0.00019     2.77363   
   217. RY*(  10) C   9                  0.00015     1.67158   
   218. RY*(  11) C   9                  0.00014     0.93782   
   219. RY*(  12) C   9                  0.00005     2.89838   
   220. RY*(  13) C   9                  0.00005     0.93436   
   221. RY*(  14) C   9                  0.00001     2.69960   
   222. RY*(  15) C   9                  0.00001     2.02028   
   223. RY*(  16) C   9                  0.00001    22.44877   
   224. RY*(  17) C   9                  0.00000     2.72483   
   225. RY*(   1) C  10                  0.00421     0.99585   
   226. RY*(   2) C  10                  0.00193     0.89596   
   227. RY*(   3) C  10                  0.00190     1.69858   
   228. RY*(   4) C  10                  0.00071     1.44765   
   229. RY*(   5) C  10                  0.00053     1.33173   
   230. RY*(   6) C  10                  0.00045     1.51163   
   231. RY*(   7) C  10                  0.00031     0.67731   
   232. RY*(   8) C  10                  0.00014     2.10711   
   233. RY*(   9) C  10                  0.00012     1.85337   
   234. RY*(  10) C  10                  0.00010     0.74026   
   235. RY*(  11) C  10                  0.00006     2.32031   
   236. RY*(  12) C  10                  0.00005     1.35252   
   237. RY*(  13) C  10                  0.00003     2.59234   
   238. RY*(  14) C  10                  0.00003     0.69558   
   239. RY*(  15) C  10                  0.00000    22.26858   
   240. RY*(  16) C  10                  0.00000     3.12055   
   241. RY*(  17) C  10                  0.00001     1.73076   
   242. RY*(   1) C  11                  0.01518     1.12571   
   243. RY*(   2) C  11                  0.01170     1.58877   
   244. RY*(   3) C  11                  0.00693     1.61091   
   245. RY*(   4) C  11                  0.00385     1.75305   
   246. RY*(   5) C  11                  0.00236     1.66017   
   247. RY*(   6) C  11                  0.00168     1.38267   
   248. RY*(   7) C  11                  0.00069     1.59303   
   249. RY*(   8) C  11                  0.00038     0.69144   
   250. RY*(   9) C  11                  0.00012     3.21133   
   251. RY*(  10) C  11                  0.00009     2.91897   
   252. RY*(  11) C  11                  0.00003     2.65781   
   253. RY*(  12) C  11                  0.00001     2.67077   
   254. RY*(  13) C  11                  0.00001     5.27411   
   255. RY*(  14) C  11                  0.00001     1.15326   
   256. RY*(  15) C  11                  0.00001     1.61338   
   257. RY*(  16) C  11                  0.00001    14.90684   
   258. RY*(  17) C  11                  0.00000     0.44423   
   259. RY*(   1) O  12                  0.00387     0.45632   
   260. RY*(   2) O  12                  0.00209     0.92494   
   261. RY*(   3) O  12                  0.00097     1.65352   
   262. RY*(   4) O  12                  0.00073     0.87497   
   263. RY*(   5) O  12                  0.00049     1.29020   
   264. RY*(   6) O  12                  0.00017     1.33645   
   265. RY*(   7) O  12                  0.00014     2.79967   
   266. RY*(   8) O  12                  0.00005     1.44460   
   267. RY*(   9) O  12                  0.00004     3.90999   
   268. RY*(  10) O  12                  0.00005     1.36448   
   269. RY*(  11) O  12                  0.00001     4.37025   
   270. RY*(  12) O  12                  0.00001     2.25604   
   271. RY*(  13) O  12                  0.00001     4.49860   
   272. RY*(  14) O  12                  0.00002     2.87189   
   273. RY*(  15) O  12                  0.00000     4.86671   
   274. RY*(  16) O  12                  0.00000    49.46396   
   275. RY*(  17) O  12                  0.00001     3.15178   
   276. RY*(   1)Br  13                  0.00424     0.52804   
   277. RY*(   2)Br  13                  0.00181     0.55952   
   278. RY*(   3)Br  13                  0.00092     0.57334   
   279. RY*(   4)Br  13                  0.00028     0.62988   
   280. RY*(   5)Br  13                  0.00011     0.55768   
   281. RY*(   6)Br  13                  0.00009     0.48315   
   282. RY*(   7)Br  13                  0.00006     0.60884   
   283. RY*(   8)Br  13                  0.00007     2.07806   
   284. RY*(   9)Br  13                  0.00004     0.68922   
   285. RY*(  10)Br  13                  0.00004     0.94677   
   286. RY*(  11)Br  13                  0.00001     2.27989   
   287. RY*(  12)Br  13                  0.00001     0.49157   
   288. RY*(  13)Br  13                  0.00002     1.00253   
   289. RY*(  14)Br  13                  0.00000    10.98209   
   290. RY*(  15)Br  13                  0.00000   285.34244   
   291. RY*(  16)Br  13                  0.00000     1.11739   
   292. RY*(  17)Br  13                  0.00000    13.20685   
   293. RY*(  18)Br  13                  0.00000     2.45300   
   294. RY*(  19)Br  13                  0.00000    11.39183   
   295. RY*(  20)Br  13                  0.00000   285.39279   
   296. RY*(  21)Br  13                  0.00000     2.46134   
   297. RY*(  22)Br  13                  0.00000     4.29587   
   298. RY*(  23)Br  13                  0.00000    11.31824   
   299. RY*(  24)Br  13                  0.00000     4.11581   
   300. RY*(  25)Br  13                  0.00000   285.41060   
   301. RY*(  26)Br  13                  0.00000     4.05636   
   302. RY*(  27)Br  13                  0.00000    78.40357   
   303. RY*(  28)Br  13                  0.00000     4.29976   
   304. RY*(  29)Br  13                  0.00000   982.22171   
   305. RY*(  30)Br  13                  0.00000     3.97744   
   306. RY*(   1) O  14                  0.00274     0.79434   
   307. RY*(   2) O  14                  0.00115     0.64331   
   308. RY*(   3) O  14                  0.00082     1.11552   
   309. RY*(   4) O  14                  0.00013     1.30728   
   310. RY*(   5) O  14                  0.00010     4.79364   
   311. RY*(   6) O  14                  0.00006     1.47030   
   312. RY*(   7) O  14                  0.00003     1.49422   
   313. RY*(   8) O  14                  0.00003     1.28716   
   314. RY*(   9) O  14                  0.00001     1.88695   
   315. RY*(  10) O  14                  0.00000    49.32765   
   316. RY*(  11) O  14                  0.00000     3.11862   
   317. RY*(  12) O  14                  0.00000     4.93781   
   318. RY*(  13) O  14                  0.00001     3.23393   
   319. RY*(  14) O  14                  0.00000     3.10304   
   320. RY*(  15) O  14                  0.00000     2.34980   
   321. RY*(  16) O  14                  0.00000     4.87513   
   322. RY*(  17) O  14                  0.00000     2.85951   
   323. RY*(   1) O  15                  0.00448     0.62112   
   324. RY*(   2) O  15                  0.00359     0.72694   
   325. RY*(   3) O  15                  0.00094     1.28471   
   326. RY*(   4) O  15                  0.00067     0.64978   
   327. RY*(   5) O  15                  0.00024     1.80572   
   328. RY*(   6) O  15                  0.00019     2.57759   
   329. RY*(   7) O  15                  0.00012     1.37246   
   330. RY*(   8) O  15                  0.00003     1.07915   
   331. RY*(   9) O  15                  0.00004     1.36538   
   332. RY*(  10) O  15                  0.00004     2.61754   
   333. RY*(  11) O  15                  0.00001     5.20537   
   334. RY*(  12) O  15                  0.00000     4.96748   
   335. RY*(  13) O  15                  0.00000    49.04202   
   336. RY*(  14) O  15                  0.00000     4.98135   
   337. RY*(  15) O  15                  0.00000     3.05122   
   338. RY*(  16) O  15                  0.00001     3.12843   
   339. RY*(  17) O  15                  0.00000     2.80095   
   340. RY*(   1) C  16                  0.00291     1.24254   
   341. RY*(   2) C  16                  0.00206     1.39002   
   342. RY*(   3) C  16                  0.00152     0.83309   
   343. RY*(   4) C  16                  0.00047     1.30150   
   344. RY*(   5) C  16                  0.00034     0.56727   
   345. RY*(   6) C  16                  0.00013     1.33590   
   346. RY*(   7) C  16                  0.00001     0.61004   
   347. RY*(   8) C  16                  0.00001     0.89437   
   348. RY*(   9) C  16                  0.00001     2.37087   
   349. RY*(  10) C  16                  0.00000     1.08300   
   350. RY*(  11) C  16                  0.00000    23.28836   
   351. RY*(  12) C  16                  0.00001     2.15747   
   352. RY*(  13) C  16                  0.00001     1.45797   
   353. RY*(  14) C  16                  0.00001     1.45346   
   354. RY*(  15) C  16                  0.00000     2.19689   
   355. RY*(  16) C  16                  0.00000     2.08004   
   356. RY*(  17) C  16                  0.00000     2.33044   
   357. RY*(   1) H  17                  0.00079     0.89832   
   358. RY*(   2) H  17                  0.00021     1.90213   
   359. RY*(   3) H  17                  0.00018     1.69386   
   360. RY*(   4) H  17                  0.00011     1.98917   
   361. RY*(   5) H  17                  0.00005     0.37427   
   362. RY*(   6) H  17                  0.00004     2.40857   
   363. RY*(   1) H  18                  0.00092     0.86078   
   364. RY*(   2) H  18                  0.00020     2.07405   
   365. RY*(   3) H  18                  0.00020     1.56800   
   366. RY*(   4) H  18                  0.00012     1.75357   
   367. RY*(   5) H  18                  0.00004     0.63103   
   368. RY*(   6) H  18                  0.00005     2.44353   
   369. RY*(   1) H  19                  0.00085     0.69445   
   370. RY*(   2) H  19                  0.00023     1.58218   
   371. RY*(   3) H  19                  0.00019     2.22062   
   372. RY*(   4) H  19                  0.00010     2.02877   
   373. RY*(   5) H  19                  0.00011     0.54522   
   374. RY*(   6) H  19                  0.00003     2.23407   
   375. RY*(   1) H  20                  0.00089     0.92848   
   376. RY*(   2) H  20                  0.00021     2.00373   
   377. RY*(   3) H  20                  0.00016     1.58604   
   378. RY*(   4) H  20                  0.00013     1.88032   
   379. RY*(   5) H  20                  0.00003     0.44146   
   380. RY*(   6) H  20                  0.00003     2.40780   
   381. RY*(   1) H  21                  0.00155     0.80433   
   382. RY*(   2) H  21                  0.00068     1.63743   
   383. RY*(   3) H  21                  0.00040     1.83457   
   384. RY*(   4) H  21                  0.00021     1.82271   
   385. RY*(   5) H  21                  0.00006     2.49473   
   386. RY*(   6) H  21                  0.00007     0.91699   
   387. RY*(   1) H  22                  0.00131     0.59198   
   388. RY*(   2) H  22                  0.00033     1.81815   
   389. RY*(   3) H  22                  0.00014     2.33972   
   390. RY*(   4) H  22                  0.00010     1.74081   
   391. RY*(   5) H  22                  0.00011     2.04793   
   392. RY*(   6) H  22                  0.00007     0.89091   
   393. RY*(   1) H  23                  0.00124     0.59925   
   394. RY*(   2) H  23                  0.00034     1.85622   
   395. RY*(   3) H  23                  0.00014     2.42653   
   396. RY*(   4) H  23                  0.00010     2.07932   
   397. RY*(   5) H  23                  0.00009     1.84525   
   398. RY*(   6) H  23                  0.00005     0.58179   
   399. RY*(   1) H  24                  0.00144     0.44006   
   400. RY*(   2) H  24                  0.00026     1.79883   
   401. RY*(   3) H  24                  0.00013     2.26405   
   402. RY*(   4) H  24                  0.00014     1.47239   
   403. RY*(   5) H  24                  0.00003     0.85133   
   404. RY*(   6) H  24                  0.00002     2.26493   
   405. RY*(   1) H  25                  0.00056     0.43935   
   406. RY*(   2) H  25                  0.00017     1.70541   
   407. RY*(   3) H  25                  0.00014     1.91022   
   408. RY*(   4) H  25                  0.00010     2.01871   
   409. RY*(   5) H  25                  0.00004     1.33453   
   410. RY*(   6) H  25                  0.00002     1.55657   
   411. RY*(   1) H  26                  0.00146     0.44128   
   412. RY*(   2) H  26                  0.00026     1.80197   
   413. RY*(   3) H  26                  0.00015     1.79952   
   414. RY*(   4) H  26                  0.00013     1.91586   
   415. RY*(   5) H  26                  0.00003     0.87048   
   416. RY*(   6) H  26                  0.00002     2.25879   
   417. BD*(   1) C   1 - C   2          0.02658     0.54049   
   418. BD*(   1) C   1 - C   6          0.01191     0.56763   
   419. BD*(   2) C   1 - C   6          0.31065     0.00775  422(v),427(v),159(g),75(g)
   420. BD*(   1) C   1 - H  17          0.01245     0.41668   
   421. BD*(   1) C   2 - C   3          0.02714     0.55031   
   422. BD*(   2) C   2 - C   3          0.38246     0.00069  427(v),419(v),108(g),433(v)
                                                    432(v),125(v),74(v)
   423. BD*(   1) C   2 - N   7          0.02946     0.37606   
   424. BD*(   1) C   3 - C   4          0.01312     0.55355   
   425. BD*(   1) C   3 - H  18          0.01279     0.41486   
   426. BD*(   1) C   4 - C   5          0.02899     0.53690   
   427. BD*(   2) C   4 - C   5          0.38557     0.00021  422(v),419(v),125(g),159(v)
                                                    142(g)
   428. BD*(   1) C   4 - H  19          0.01337     0.41770   
   429. BD*(   1) C   5 - C   6          0.02273     0.53509   
   430. BD*(   1) C   5 - O  15          0.02978     0.34455   
   431. BD*(   1) C   6 - H  20          0.01223     0.42052   
   432. BD*(   1) N   7 - C   8          0.02892     0.46698   
   433. BD*(   1) N   7 - H  21          0.02391     0.36741   
   434. BD*(   1) C   8 - C   9          0.02440     0.59350   
   435. BD*(   2) C   8 - C   9          0.31657     0.00056  444(v),211(g),440(v),441(v)
                                                    192(g),197(g),174(v),194(g)
   436. BD*(   1) C   8 - C  10          0.03108     0.36032   
   437. BD*(   1) C   9 - C  11          0.07754     0.44018   
   438. BD*(   1) C   9 -Br  13          0.03096     0.09215   
   439. BD*(   1) C  10 - O  12          0.01416     0.26297   
   440. BD*(   1) C  10 - H  22          0.02248     0.36436   
   441. BD*(   1) C  10 - H  23          0.02248     0.36232   
   442. BD*(   1) C  11 - O  12          0.12168     0.31367  439(g),436(v),243(g),248(g)
                                                    434(v),438(v)
   443. BD*(   1) C  11 - O  14          0.01291     0.64420   
   444. BD*(   2) C  11 - O  14          0.28865     0.01891  435(v),244(g),307(g),249(g)
                                                    319(g)
   445. BD*(   1) O  15 - C  16          0.00915     0.26309   
   446. BD*(   1) C  16 - H  24          0.01819     0.35675   
   447. BD*(   1) C  16 - H  25          0.00875     0.37775   
   448. BD*(   1) C  16 - H  26          0.01826     0.35662   
       -------------------------------
              Total Lewis  139.37388  ( 98.1506%)
        Valence non-Lewis    2.38935  (  1.6826%)
        Rydberg non-Lewis    0.23677  (  0.1667%)
       -------------------------------
            Total unit  1  142.00000  (100.0000%)
           Charge unit  1    0.00000
 Leave Link  607 at Fri Jul 05 20:31:37 2019, MaxMem=  209715200 cpu:       5.0
 (Enter C:\G09W\l9999.exe)
 1|1|UNPC-CCSC-2005544|FOpt|RB3LYP|6-311++G(d,p)|C11H10Br1N1O3|EDUARDO.
 MELO|05-Jul-2019|0||#p opt b3lyp/6-311++g(d,p) pop=nbo geom=connectivi
 ty||8g.log||0,1|C,-2.0564651459,-0.7485568287,1.4358033591|C,-1.319984
 6282,-0.4751432996,0.2758127154|C,-1.9970801051,-0.1001437005,-0.88189
 85515|C,-3.3861279727,0.0343852921,-0.8865600943|C,-4.1142623946,-0.24
 07107794,0.2740665982|C,-3.4377171703,-0.643136936,1.4337325908|N,0.09
 91738899,-0.6212871757,0.2863025673|C,1.0035124354,0.3497802476,0.0195
 748551|C,2.3550521411,0.2676271339,0.0158445502|C,0.6428285146,1.78348
 94002,-0.2838341963|C,2.9447972438,1.5730046373,-0.2671466216|O,1.8892
 941559,2.461083448,-0.4458530055|Br,3.3695691436,-1.2805300183,0.37002
 24949|O,4.087552236,1.9218444071,-0.3512784514|O,-5.4678912399,-0.1541
 338256,0.3775426163|C,-6.218547517,0.2380217477,-0.7664784044|H,-1.537
 5997526,-1.0392343514,2.342475441|H,-1.444088781,0.0677504803,-1.79853
 66519|H,-3.8820962694,0.3301337547,-1.8008107172|H,-4.0155377076,-0.85
 50179273,2.3249309493|H,0.4794592146,-1.5053300958,0.5986024972|H,0.06
 32870793,1.891800562,-1.2029073264|H,0.0838464537,2.2385793439,0.53955
 91699|H,-6.0896157145,-0.4725177734,-1.5896776449|H,-7.2600489149,0.23
 90111985,-0.4506957349|H,-5.9399051941,1.2429820587,-1.1006170043||Ver
 sion=IA32W-G09RevA.02|State=1-A|HF=-3279.9393299|RMSD=3.351e-009|RMSF=
 4.846e-006|Dipole=-3.3557069,-0.9764486,-0.1417092|Quadrupole=-4.73470
 05,-2.37705,7.1117504,-12.0946082,8.1910635,-0.9864435|PG=C01 [X(C11H1
 0Br1N1O3)]||@


 MODELS ARE TO BE USED, NOT BELIEVED.

    -- PARAPHRASED BY H. THIEL IN "PRINCIPLES OF ECONOMETRICS"
 Job cpu time:  0 days  8 hours 16 minutes 16.0 seconds.
 File lengths (MBytes):  RWF=    125 Int=      0 D2E=      0 Chk=     12 Scr=      1
 Normal termination of Gaussian 09 at Fri Jul 05 20:31:38 2019.
