 Entering Link 1 = C:\G09W\l1.exe PID=      5152.
  
 Copyright (c) 1988,1990,1992,1993,1995,1998,2003,2009, Gaussian, Inc.
                  All Rights Reserved.
  
 This is part of the Gaussian(R) 09 program.  It is based on
 the Gaussian(R) 03 system (copyright 2003, Gaussian, Inc.),
 the Gaussian(R) 98 system (copyright 1998, Gaussian, Inc.),
 the Gaussian(R) 94 system (copyright 1995, Gaussian, Inc.),
 the Gaussian 92(TM) system (copyright 1992, Gaussian, Inc.),
 the Gaussian 90(TM) system (copyright 1990, Gaussian, Inc.),
 the Gaussian 88(TM) system (copyright 1988, Gaussian, Inc.),
 the Gaussian 86(TM) system (copyright 1986, Carnegie Mellon
 University), and the Gaussian 82(TM) system (copyright 1983,
 Carnegie Mellon University). Gaussian is a federally registered
 trademark of Gaussian, Inc.
  
 This software contains proprietary and confidential information,
 including trade secrets, belonging to Gaussian, Inc.
  
 This software is provided under written license and may be
 used, copied, transmitted, or stored only in accord with that
 written license.
  
 The following legend is applicable only to US Government
 contracts under FAR:
  
                    RESTRICTED RIGHTS LEGEND
  
 Use, reproduction and disclosure by the US Government is
 subject to restrictions as set forth in subparagraphs (a)
 and (c) of the Commercial Computer Software - Restricted
 Rights clause in FAR 52.227-19.
  
 Gaussian, Inc.
 340 Quinnipiac St., Bldg. 40, Wallingford CT 06492
  
  
 ---------------------------------------------------------------
 Warning -- This program may not be used in any manner that
 competes with the business of Gaussian, Inc. or will provide
 assistance to any competitor of Gaussian, Inc.  The licensee
 of this program is prohibited from giving any competitor of
 Gaussian, Inc. access to this program.  By using this program,
 the user acknowledges that Gaussian, Inc. is engaged in the
 business of creating and licensing software in the field of
 computational chemistry and represents and warrants to the
 licensee that it is not a competitor of Gaussian, Inc. and that
 it will not use this program in any manner prohibited above.
 ---------------------------------------------------------------
  

 Cite this work as:
 Gaussian 09, Revision A.02,
 M. J. Frisch, G. W. Trucks, H. B. Schlegel, G. E. Scuseria, 
 M. A. Robb, J. R. Cheeseman, G. Scalmani, V. Barone, B. Mennucci, 
 G. A. Petersson, H. Nakatsuji, M. Caricato, X. Li, H. P. Hratchian, 
 A. F. Izmaylov, J. Bloino, G. Zheng, J. L. Sonnenberg, M. Hada, 
 M. Ehara, K. Toyota, R. Fukuda, J. Hasegawa, M. Ishida, T. Nakajima, 
 Y. Honda, O. Kitao, H. Nakai, T. Vreven, J. A. Montgomery, Jr., 
 J. E. Peralta, F. Ogliaro, M. Bearpark, J. J. Heyd, E. Brothers, 
 K. N. Kudin, V. N. Staroverov, R. Kobayashi, J. Normand, 
 K. Raghavachari, A. Rendell, J. C. Burant, S. S. Iyengar, J. Tomasi, 
 M. Cossi, N. Rega, J. M. Millam, M. Klene, J. E. Knox, J. B. Cross, 
 V. Bakken, C. Adamo, J. Jaramillo, R. Gomperts, R. E. Stratmann, 
 O. Yazyev, A. J. Austin, R. Cammi, C. Pomelli, J. W. Ochterski, 
 R. L. Martin, K. Morokuma, V. G. Zakrzewski, G. A. Voth, 
 P. Salvador, J. J. Dannenberg, S. Dapprich, A. D. Daniels, 
 O. Farkas, J. B. Foresman, J. V. Ortiz, J. Cioslowski, 
 and D. J. Fox, Gaussian, Inc., Wallingford CT, 2009.
 
 ******************************************
 Gaussian 09:  IA32W-G09RevA.02 11-Jun-2009
                05-Jul-2019 
 ******************************************
 %nprocshared=4
 Will use up to    4 processors via shared memory.
 %mem=1600MB
 ----------------------------------------------------
 #p opt b3lyp/6-311++g(d,p) pop=nbo geom=connectivity
 ----------------------------------------------------
 1/14=-1,18=20,19=15,26=3,38=1,57=2/1,3;
 2/9=110,12=2,17=6,18=5,40=1/2;
 3/5=4,6=6,7=1111,11=2,16=1,25=1,30=1,71=1,74=-5/1,2,3;
 4//1;
 5/5=2,38=5/2;
 6/7=2,8=2,9=2,10=2,28=1/1,7;
 7//1,2,3,16;
 1/14=-1,18=20,19=15/3(2);
 2/9=110/2;
 99//99;
 2/9=110/2;
 3/5=4,6=6,7=1111,11=2,16=1,25=1,30=1,71=1,74=-5/1,2,3;
 4/5=5,16=3/1;
 5/5=2,38=5/2;
 7//1,2,3,16;
 1/14=-1,18=20,19=15/3(-5);
 2/9=110/2;
 6/7=2,8=2,9=2,10=2,19=2,28=1/1,7;
 99/9=1/99;
 Leave Link    1 at Fri Jul 05 09:59:30 2019, MaxMem=  209715200 cpu:       1.0
 (Enter C:\G09W\l101.exe)
 ------
 8h.log
 ------
 Symbolic Z-matrix:
 Charge =  0 Multiplicity = 1
 C                    -1.30807   0.09236   1.17524 
 C                    -0.64051  -0.46864   0.09688 
 C                    -1.35878  -0.88082  -1.01612 
 C                    -2.73401  -0.7322   -1.05527 
 C                    -3.38359  -0.155     0.02076 
 C                    -2.68165   0.26167   1.13636 
 N                     0.76919  -0.64958   0.13905 
 C                     1.68287   0.33242   0.01438 
 C                     3.01316   0.24279  -0.01541 
 C                     1.32705   1.78982  -0.1389 
 C                     3.59394   1.57384  -0.18473 
 O                     2.56165   2.44671  -0.25147 
 Br                    4.02832  -1.31787   0.11386 
 O                     4.72094   1.91126  -0.25948 
 Br                   -5.26458   0.06289  -0.03308 
 H                    -0.75557   0.3835    2.05019 
 H                    -0.84055  -1.31602  -1.8516 
 H                    -3.29102  -1.05283  -1.91466 
 H                    -3.19873   0.69898   1.96885 
 H                     1.12283  -1.58079   0.14563 
 H                     0.73454   1.96361  -1.02915 
 H                     0.79026   2.17371   0.71885 
 
 NAtoms=     22 NQM=     22 NQMF=      0 NMic=      0 NMicF=      0 NTot=     22.
                    Isotopes and Nuclear Properties:
 (Nuclear quadrupole moments (NQMom) in fm**2, nuclear magnetic moments (NMagM)
  in nuclear magnetons)

  Atom         1           2           3           4           5           6           7           8           9          10
 IAtWgt=          12          12          12          12          12          12          14          12          12          12
 AtmWgt=  12.0000000  12.0000000  12.0000000  12.0000000  12.0000000  12.0000000  14.0030740  12.0000000  12.0000000  12.0000000
 NucSpn=           0           0           0           0           0           0           2           0           0           0
 AtZEff=   0.0000000   0.0000000   0.0000000   0.0000000   0.0000000   0.0000000   0.0000000   0.0000000   0.0000000   0.0000000
 NQMom=    0.0000000   0.0000000   0.0000000   0.0000000   0.0000000   0.0000000   2.0440000   0.0000000   0.0000000   0.0000000
 NMagM=    0.0000000   0.0000000   0.0000000   0.0000000   0.0000000   0.0000000   0.4037610   0.0000000   0.0000000   0.0000000

  Atom        11          12          13          14          15          16          17          18          19          20
 IAtWgt=          12          16          79          16          79           1           1           1           1           1
 AtmWgt=  12.0000000  15.9949146  78.9183361  15.9949146  78.9183361   1.0078250   1.0078250   1.0078250   1.0078250   1.0078250
 NucSpn=           0           0           3           0           3           1           1           1           1           1
 AtZEff=   0.0000000   0.0000000   0.0000000   0.0000000   0.0000000   0.0000000   0.0000000   0.0000000   0.0000000   0.0000000
 NQMom=    0.0000000   0.0000000  31.3000000   0.0000000  31.3000000   0.0000000   0.0000000   0.0000000   0.0000000   0.0000000
 NMagM=    0.0000000   0.0000000   2.1063990   0.0000000   2.1063990   2.7928460   2.7928460   2.7928460   2.7928460   2.7928460

  Atom        21          22
 IAtWgt=           1           1
 AtmWgt=   1.0078250   1.0078250
 NucSpn=           1           1
 AtZEff=   0.0000000   0.0000000
 NQMom=    0.0000000   0.0000000
 NMagM=    2.7928460   2.7928460
 Leave Link  101 at Fri Jul 05 09:59:30 2019, MaxMem=  209715200 cpu:       0.0
 (Enter C:\G09W\l103.exe)

 GradGradGradGradGradGradGradGradGradGradGradGradGradGradGradGradGradGrad
 Berny optimization.
 Initialization pass.
                           ----------------------------
                           !    Initial Parameters    !
                           ! (Angstroms and Degrees)  !
 --------------------------                            --------------------------
 ! Name  Definition              Value          Derivative Info.                !
 --------------------------------------------------------------------------------
 ! R1    R(1,2)                  1.3868         estimate D2E/DX2                !
 ! R2    R(1,6)                  1.3845         estimate D2E/DX2                !
 ! R3    R(1,16)                 1.075          estimate D2E/DX2                !
 ! R4    R(2,3)                  1.3873         estimate D2E/DX2                !
 ! R5    R(2,7)                  1.4219         estimate D2E/DX2                !
 ! R6    R(3,4)                  1.3838         estimate D2E/DX2                !
 ! R7    R(3,17)                 1.0752         estimate D2E/DX2                !
 ! R8    R(4,5)                  1.3831         estimate D2E/DX2                !
 ! R9    R(4,18)                 1.0731         estimate D2E/DX2                !
 ! R10   R(5,6)                  1.3823         estimate D2E/DX2                !
 ! R11   R(5,15)                 1.8943         estimate D2E/DX2                !
 ! R12   R(6,19)                 1.0731         estimate D2E/DX2                !
 ! R13   R(7,8)                  1.3471         estimate D2E/DX2                !
 ! R14   R(7,20)                 0.9961         estimate D2E/DX2                !
 ! R15   R(8,9)                  1.3336         estimate D2E/DX2                !
 ! R16   R(8,10)                 1.508          estimate D2E/DX2                !
 ! R17   R(9,11)                 1.4621         estimate D2E/DX2                !
 ! R18   R(9,13)                 1.8663         estimate D2E/DX2                !
 ! R19   R(10,12)                1.403          estimate D2E/DX2                !
 ! R20   R(10,21)                1.0834         estimate D2E/DX2                !
 ! R21   R(10,22)                1.0822         estimate D2E/DX2                !
 ! R22   R(11,12)                1.3535         estimate D2E/DX2                !
 ! R23   R(11,14)                1.1788         estimate D2E/DX2                !
 ! A1    A(2,1,6)              120.3443         estimate D2E/DX2                !
 ! A2    A(2,1,16)             119.674          estimate D2E/DX2                !
 ! A3    A(6,1,16)             119.9759         estimate D2E/DX2                !
 ! A4    A(1,2,3)              119.6572         estimate D2E/DX2                !
 ! A5    A(1,2,7)              120.3747         estimate D2E/DX2                !
 ! A6    A(3,2,7)              119.9536         estimate D2E/DX2                !
 ! A7    A(2,3,4)              120.3534         estimate D2E/DX2                !
 ! A8    A(2,3,17)             119.6129         estimate D2E/DX2                !
 ! A9    A(4,3,17)             120.0335         estimate D2E/DX2                !
 ! A10   A(3,4,5)              119.3121         estimate D2E/DX2                !
 ! A11   A(3,4,18)             120.4244         estimate D2E/DX2                !
 ! A12   A(5,4,18)             120.2612         estimate D2E/DX2                !
 ! A13   A(4,5,6)              121.0081         estimate D2E/DX2                !
 ! A14   A(4,5,15)             119.4879         estimate D2E/DX2                !
 ! A15   A(6,5,15)             119.5037         estimate D2E/DX2                !
 ! A16   A(1,6,5)              119.3128         estimate D2E/DX2                !
 ! A17   A(1,6,19)             120.4025         estimate D2E/DX2                !
 ! A18   A(5,6,19)             120.279          estimate D2E/DX2                !
 ! A19   A(2,7,8)              125.2353         estimate D2E/DX2                !
 ! A20   A(2,7,20)             118.1077         estimate D2E/DX2                !
 ! A21   A(8,7,20)             116.186          estimate D2E/DX2                !
 ! A22   A(7,8,9)              129.0227         estimate D2E/DX2                !
 ! A23   A(7,8,10)             123.6334         estimate D2E/DX2                !
 ! A24   A(9,8,10)             107.3398         estimate D2E/DX2                !
 ! A25   A(8,9,11)             109.7329         estimate D2E/DX2                !
 ! A26   A(8,9,13)             126.6728         estimate D2E/DX2                !
 ! A27   A(11,9,13)            123.5905         estimate D2E/DX2                !
 ! A28   A(8,10,12)            104.6564         estimate D2E/DX2                !
 ! A29   A(8,10,21)            111.5668         estimate D2E/DX2                !
 ! A30   A(8,10,22)            112.2893         estimate D2E/DX2                !
 ! A31   A(12,10,21)           109.8897         estimate D2E/DX2                !
 ! A32   A(12,10,22)           109.5099         estimate D2E/DX2                !
 ! A33   A(21,10,22)           108.8499         estimate D2E/DX2                !
 ! A34   A(9,11,12)            106.8492         estimate D2E/DX2                !
 ! A35   A(9,11,14)            130.3691         estimate D2E/DX2                !
 ! A36   A(12,11,14)           122.7816         estimate D2E/DX2                !
 ! A37   A(10,12,11)           111.4216         estimate D2E/DX2                !
 ! D1    D(6,1,2,3)             -1.038          estimate D2E/DX2                !
 ! D2    D(6,1,2,7)           -179.6533         estimate D2E/DX2                !
 ! D3    D(16,1,2,3)           178.0885         estimate D2E/DX2                !
 ! D4    D(16,1,2,7)            -0.5268         estimate D2E/DX2                !
 ! D5    D(2,1,6,5)              1.0876         estimate D2E/DX2                !
 ! D6    D(2,1,6,19)          -179.7756         estimate D2E/DX2                !
 ! D7    D(16,1,6,5)          -178.0362         estimate D2E/DX2                !
 ! D8    D(16,1,6,19)            1.1006         estimate D2E/DX2                !
 ! D9    D(1,2,3,4)              0.1341         estimate D2E/DX2                !
 ! D10   D(1,2,3,17)          -179.9755         estimate D2E/DX2                !
 ! D11   D(7,2,3,4)            178.7553         estimate D2E/DX2                !
 ! D12   D(7,2,3,17)            -1.3543         estimate D2E/DX2                !
 ! D13   D(1,2,7,8)            -74.5127         estimate D2E/DX2                !
 ! D14   D(1,2,7,20)           113.6844         estimate D2E/DX2                !
 ! D15   D(3,2,7,8)            106.8761         estimate D2E/DX2                !
 ! D16   D(3,2,7,20)           -64.9268         estimate D2E/DX2                !
 ! D17   D(2,3,4,5)              0.7027         estimate D2E/DX2                !
 ! D18   D(2,3,4,18)          -179.8504         estimate D2E/DX2                !
 ! D19   D(17,3,4,5)          -179.1872         estimate D2E/DX2                !
 ! D20   D(17,3,4,18)            0.2596         estimate D2E/DX2                !
 ! D21   D(3,4,5,6)             -0.653          estimate D2E/DX2                !
 ! D22   D(3,4,5,15)           179.5378         estimate D2E/DX2                !
 ! D23   D(18,4,5,6)           179.8993         estimate D2E/DX2                !
 ! D24   D(18,4,5,15)            0.09           estimate D2E/DX2                !
 ! D25   D(4,5,6,1)             -0.2384         estimate D2E/DX2                !
 ! D26   D(4,5,6,19)          -179.3763         estimate D2E/DX2                !
 ! D27   D(15,5,6,1)           179.5708         estimate D2E/DX2                !
 ! D28   D(15,5,6,19)            0.4329         estimate D2E/DX2                !
 ! D29   D(2,7,8,9)           -176.8015         estimate D2E/DX2                !
 ! D30   D(2,7,8,10)             2.3768         estimate D2E/DX2                !
 ! D31   D(20,7,8,9)            -4.8579         estimate D2E/DX2                !
 ! D32   D(20,7,8,10)          174.3203         estimate D2E/DX2                !
 ! D33   D(7,8,9,11)           179.1928         estimate D2E/DX2                !
 ! D34   D(7,8,9,13)            -0.1132         estimate D2E/DX2                !
 ! D35   D(10,8,9,11)           -0.0905         estimate D2E/DX2                !
 ! D36   D(10,8,9,13)         -179.3965         estimate D2E/DX2                !
 ! D37   D(7,8,10,12)         -179.2613         estimate D2E/DX2                !
 ! D38   D(7,8,10,21)          -60.478          estimate D2E/DX2                !
 ! D39   D(7,8,10,22)           62.0347         estimate D2E/DX2                !
 ! D40   D(9,8,10,12)            0.0699         estimate D2E/DX2                !
 ! D41   D(9,8,10,21)          118.8532         estimate D2E/DX2                !
 ! D42   D(9,8,10,22)         -118.6341         estimate D2E/DX2                !
 ! D43   D(8,9,11,12)            0.0792         estimate D2E/DX2                !
 ! D44   D(8,9,11,14)         -179.8505         estimate D2E/DX2                !
 ! D45   D(13,9,11,12)         179.411          estimate D2E/DX2                !
 ! D46   D(13,9,11,14)          -0.5187         estimate D2E/DX2                !
 ! D47   D(8,10,12,11)          -0.0207         estimate D2E/DX2                !
 ! D48   D(21,10,12,11)       -119.9328         estimate D2E/DX2                !
 ! D49   D(22,10,12,11)        120.5489         estimate D2E/DX2                !
 ! D50   D(9,11,12,10)          -0.0316         estimate D2E/DX2                !
 ! D51   D(14,11,12,10)        179.9047         estimate D2E/DX2                !
 --------------------------------------------------------------------------------
 Trust Radius=3.00D-01 FncErr=1.00D-07 GrdErr=1.00D-06
 Number of steps in this run= 121 maximum allowed number of steps= 132.
 GradGradGradGradGradGradGradGradGradGradGradGradGradGradGradGradGradGrad

 Leave Link  103 at Fri Jul 05 09:59:30 2019, MaxMem=  209715200 cpu:       0.0
 (Enter C:\G09W\l202.exe)
                          Input orientation:                          
 ---------------------------------------------------------------------
 Center     Atomic      Atomic             Coordinates (Angstroms)
 Number     Number       Type             X           Y           Z
 ---------------------------------------------------------------------
      1          6           0       -1.308065    0.092357    1.175235
      2          6           0       -0.640510   -0.468638    0.096875
      3          6           0       -1.358779   -0.880818   -1.016122
      4          6           0       -2.734010   -0.732195   -1.055268
      5          6           0       -3.383594   -0.154999    0.020762
      6          6           0       -2.681652    0.261672    1.136356
      7          7           0        0.769185   -0.649575    0.139045
      8          6           0        1.682866    0.332423    0.014377
      9          6           0        3.013157    0.242791   -0.015408
     10          6           0        1.327054    1.789815   -0.138903
     11          6           0        3.593939    1.573836   -0.184732
     12          8           0        2.561648    2.446713   -0.251465
     13         35           0        4.028318   -1.317873    0.113856
     14          8           0        4.720938    1.911257   -0.259484
     15         35           0       -5.264580    0.062891   -0.033080
     16          1           0       -0.755571    0.383500    2.050189
     17          1           0       -0.840552   -1.316020   -1.851599
     18          1           0       -3.291021   -1.052831   -1.914664
     19          1           0       -3.198725    0.698977    1.968845
     20          1           0        1.122829   -1.580791    0.145632
     21          1           0        0.734543    1.963610   -1.029151
     22          1           0        0.790259    2.173706    0.718845
 ---------------------------------------------------------------------
                    Distance matrix (angstroms):
                    1          2          3          4          5
     1  C    0.000000
     2  C    1.386797   0.000000
     3  C    2.398267   1.387287   0.000000
     4  C    2.772787   2.404088   1.383792   0.000000
     5  C    2.387847   2.762005   2.387848   1.383096   0.000000
     6  C    1.384529   2.404191   2.772803   2.407017   1.382348
     7  N    2.437031   1.421885   2.432306   3.702105   4.183798
     8  C    3.217280   2.458980   3.433000   4.667585   5.089856
     9  C    4.484777   3.723979   4.623608   5.921303   6.409210
    10  C    3.398849   3.004581   3.887865   4.867494   5.098823
    11  C    5.298484   4.709730   5.589808   6.791064   7.191458
    12  O    4.749015   4.344471   5.198741   6.228607   6.495299
    13  Br   5.620699   4.745466   5.521656   6.887594   7.503158
    14  O    6.458769   5.876735   6.732841   7.949677   8.368476
    15  Br   4.137016   4.656333   4.136694   2.842677   1.894329
    16  H    1.074969   2.134201   3.371146   3.847448   3.363787
    17  H    3.371026   2.134157   1.075166   2.135457   3.364635
    18  H    3.845913   3.378281   2.137879   1.073140   2.135543
    19  H    2.138317   3.378174   3.845931   3.377791   2.135059
    20  H    3.125500   2.085336   2.828076   4.127649   4.728247
    21  H    3.540219   3.012397   3.531705   4.393052   4.748671
    22  H    2.990530   3.068538   4.118081   4.900225   4.830242
                    6          7          8          9         10
     6  C    0.000000
     7  N    3.705844   0.000000
     8  C    4.506979   1.347099   0.000000
     9  C    5.810143   2.419831   1.333640   0.000000
    10  C    4.475626   2.517756   1.508008   2.291610   0.000000
    11  C    6.545998   3.609380   2.287564   1.462074   2.277612
    12  O    5.847448   3.598947   2.305028   2.262047   1.402999
    13  Br   6.968799   3.327041   2.869585   1.866262   4.125341
    14  O    7.711539   4.725784   3.434763   2.399972   3.398196
    15  Br   2.842290   6.078121   6.952834   8.279711   6.814918
    16  H    2.135350   2.654166   3.176966   4.299977   3.332742
    17  H    3.847939   2.645386   3.544978   4.544509   4.156688
    18  H    3.377569   4.567889   5.511776   6.710326   5.706188
    19  H    1.073144   4.572862   5.271076   6.537036   5.110304
    20  H    4.341691   0.996128   1.997813   2.631487   3.388754
    21  H    4.388212   2.862624   2.156163   3.030012   1.083428
    22  H    3.985518   2.882278   2.164104   3.034606   1.082244
                   11         12         13         14         15
    11  C    0.000000
    12  O    1.353511   0.000000
    13  Br   2.939357   4.056684   0.000000
    14  O    1.178799   2.224705   3.323610   0.000000
    15  Br   8.987731   8.184140   9.396066  10.157671   0.000000
    16  H    5.032893   4.534137   5.434119   6.136838   4.977345
    17  H    5.549272   5.319168   5.250611   6.624222   4.977995
    18  H    7.569327   7.019029   7.599859   8.701547   2.946206
    19  H    7.179384   6.416093   7.729089   8.316017   2.946195
    20  H    4.020845   4.295192   2.917534   5.030398   6.597926
    21  H    3.006844   2.043648   4.787854   4.060354   6.371371
    22  H    3.006147   2.038100   4.800225   4.059094   6.456160
                   16         17         18         19         20
    16  H    0.000000
    17  H    4.256705   0.000000
    18  H    4.920530   2.465369   0.000000
    19  H    2.464781   4.921076   4.261337   0.000000
    20  H    3.318759   2.813166   4.899554   5.215101   0.000000
    21  H    3.768225   3.730056   5.107662   5.104691   3.754152
    22  H    2.714204   4.630865   5.831188   4.432755   3.812535
                   21         22
    21  H    0.000000
    22  H    1.761458   0.000000
 Stoichiometry    C10H7Br2NO2
 Framework group  C1[X(C10H7Br2NO2)]
 Deg. of freedom    60
 Full point group                 C1      NOp   1
 Largest Abelian subgroup         C1      NOp   1
 Largest concise Abelian subgroup C1      NOp   1
                         Standard orientation:                         
 ---------------------------------------------------------------------
 Center     Atomic      Atomic             Coordinates (Angstroms)
 Number     Number       Type             X           Y           Z
 ---------------------------------------------------------------------
      1          6           0       -1.308065    0.092357    1.175235
      2          6           0       -0.640510   -0.468638    0.096875
      3          6           0       -1.358779   -0.880818   -1.016122
      4          6           0       -2.734010   -0.732195   -1.055268
      5          6           0       -3.383594   -0.154999    0.020762
      6          6           0       -2.681652    0.261672    1.136356
      7          7           0        0.769185   -0.649575    0.139045
      8          6           0        1.682866    0.332423    0.014377
      9          6           0        3.013157    0.242791   -0.015408
     10          6           0        1.327054    1.789815   -0.138903
     11          6           0        3.593939    1.573836   -0.184732
     12          8           0        2.561648    2.446713   -0.251465
     13         35           0        4.028318   -1.317873    0.113856
     14          8           0        4.720938    1.911257   -0.259484
     15         35           0       -5.264580    0.062891   -0.033080
     16          1           0       -0.755571    0.383500    2.050189
     17          1           0       -0.840552   -1.316020   -1.851599
     18          1           0       -3.291021   -1.052831   -1.914664
     19          1           0       -3.198725    0.698977    1.968845
     20          1           0        1.122829   -1.580791    0.145632
     21          1           0        0.734543    1.963610   -1.029151
     22          1           0        0.790259    2.173706    0.718845
 ---------------------------------------------------------------------
 Rotational constants (GHZ):      1.0534969      0.1070254      0.1001905
 Leave Link  202 at Fri Jul 05 09:59:30 2019, MaxMem=  209715200 cpu:       0.0
 (Enter C:\G09W\l301.exe)
 Standard basis: 6-311++G(d,p) (5D, 7F)
 Ernie: Thresh=  0.10000D-02 Tol=  0.10000D-05 Strict=F.
 There are   431 symmetry adapted basis functions of A   symmetry.
 Integral buffers will be    262144 words long.
 Raffenetti 2 integral format.
 Two-electron integral symmetry is turned on.
   431 basis functions,   719 primitive gaussians,   450 cartesian basis functions
    80 alpha electrons       80 beta electrons
       nuclear repulsion energy      1544.5521223004 Hartrees.
 IExCor=  402 DFT=T Ex+Corr=B3LYP ExCW=0 ScaHFX=  0.200000
 ScaDFX=  0.800000  0.720000  1.000000  0.810000 ScalE2=  1.000000  1.000000
 IRadAn=      0 IRanWt=     -1 IRanGd=            0 ICorTp=0
 NAtoms=   22 NActive=   22 NUniq=   22 SFac= 7.50D-01 NAtFMM=   80 NAOKFM=F Big=F
 Leave Link  301 at Fri Jul 05 09:59:30 2019, MaxMem=  209715200 cpu:       0.0
 (Enter C:\G09W\l302.exe)
 NPDir=0 NMtPBC=     1 NCelOv=     1 NCel=       1 NClECP=     1 NCelD=      1
         NCelK=      1 NCelE2=     1 NClLst=     1 CellRange=     0.0.
 One-electron integrals computed using PRISM.
 NBasis=   431 RedAO= T  NBF=   431
 NBsUse=   430 1.00D-06 NBFU=   430
 Precomputing XC quadrature grid using
 IXCGrd= 2 IRadAn=           0 IRanWt=          -1 IRanGd=           0 AccXCQ= 1.00D-10.
 NRdTot=    1431 NPtTot=      189422 NUsed=      196094 NTot=      196110
 NSgBfM=   431   431   431   431   431 NAtAll=    22    22.
 Leave Link  302 at Fri Jul 05 09:59:32 2019, MaxMem=  209715200 cpu:       2.0
 (Enter C:\G09W\l303.exe)
 DipDrv:  MaxL=1.
 Leave Link  303 at Fri Jul 05 09:59:32 2019, MaxMem=  209715200 cpu:       0.0
 (Enter C:\G09W\l401.exe)
 Harris functional with IExCor=  402 diagonalized for initial guess.
 ExpMin= 3.50D-02 ExpMax= 4.40D+05 ExpMxC= 1.51D+04 IAcc=3 IRadAn=         0 AccDes= 0.00D+00
 HarFok:  IExCor=  402 AccDes= 0.00D+00 IRadAn=         0 IDoV= 1
 ScaDFX=  1.000000  1.000000  1.000000  1.000000
 FoFCou: FMM=F IPFlag=           0 FMFlag=      100000 FMFlg1=           0
         NFxFlg=           0 DoJE=T BraDBF=F KetDBF=T FulRan=T
         Omega=  0.000000  0.000000  1.000000  0.000000  0.000000 ICntrl=     500 IOpCl=  0
         NMat0=    1 NMatS0=    1 NMatT0=    0 NMatD0=    1 NMtDS0=    0 NMtDT0=    0
         I1Cent=           4 NGrid=           0.
 Petite list used in FoFCou.
 Harris En= -5739.22908985962    
 Initial guess orbital symmetries:
       Occupied  (A) (A) (A) (A) (A) (A) (A) (A) (A) (A) (A) (A)
                 (A) (A) (A) (A) (A) (A) (A) (A) (A) (A) (A) (A)
                 (A) (A) (A) (A) (A) (A) (A) (A) (A) (A) (A) (A)
                 (A) (A) (A) (A) (A) (A) (A) (A) (A) (A) (A) (A)
                 (A) (A) (A) (A) (A) (A) (A) (A) (A) (A) (A) (A)
                 (A) (A) (A) (A) (A) (A) (A) (A) (A) (A) (A) (A)
                 (A) (A) (A) (A) (A) (A) (A) (A)
       Virtual   (A) (A) (A) (A) (A) (A) (A) (A) (A) (A) (A) (A)
                 (A) (A) (A) (A) (A) (A) (A) (A) (A) (A) (A) (A)
                 (A) (A) (A) (A) (A) (A) (A) (A) (A) (A) (A) (A)
                 (A) (A) (A) (A) (A) (A) (A) (A) (A) (A) (A) (A)
                 (A) (A) (A) (A) (A) (A) (A) (A) (A) (A) (A) (A)
                 (A) (A) (A) (A) (A) (A) (A) (A) (A) (A) (A) (A)
                 (A) (A) (A) (A) (A) (A) (A) (A) (A) (A) (A) (A)
                 (A) (A) (A) (A) (A) (A) (A) (A) (A) (A) (A) (A)
                 (A) (A) (A) (A) (A) (A) (A) (A) (A) (A) (A) (A)
                 (A) (A) (A) (A) (A) (A) (A) (A) (A) (A) (A) (A)
                 (A) (A) (A) (A) (A) (A) (A) (A) (A) (A) (A) (A)
                 (A) (A) (A) (A) (A) (A) (A) (A) (A) (A) (A) (A)
                 (A) (A) (A) (A) (A) (A) (A) (A) (A) (A) (A) (A)
                 (A) (A) (A) (A) (A) (A) (A) (A) (A) (A) (A) (A)
                 (A) (A) (A) (A) (A) (A) (A) (A) (A) (A) (A) (A)
                 (A) (A) (A) (A) (A) (A) (A) (A) (A) (A) (A) (A)
                 (A) (A) (A) (A) (A) (A) (A) (A) (A) (A) (A) (A)
                 (A) (A) (A) (A) (A) (A) (A) (A) (A) (A) (A) (A)
                 (A) (A) (A) (A) (A) (A) (A) (A) (A) (A) (A) (A)
                 (A) (A) (A) (A) (A) (A) (A) (A) (A) (A) (A) (A)
                 (A) (A) (A) (A) (A) (A) (A) (A) (A) (A) (A) (A)
                 (A) (A) (A) (A) (A) (A) (A) (A) (A) (A) (A) (A)
                 (A) (A) (A) (A) (A) (A) (A) (A) (A) (A) (A) (A)
                 (A) (A) (A) (A) (A) (A) (A) (A) (A) (A) (A) (A)
                 (A) (A) (A) (A) (A) (A) (A) (A) (A) (A) (A) (A)
                 (A) (A) (A) (A) (A) (A) (A) (A) (A) (A) (A) (A)
                 (A) (A) (A) (A) (A) (A) (A) (A) (A) (A) (A) (A)
                 (A) (A) (A) (A) (A) (A) (A) (A) (A) (A) (A) (A)
                 (A) (A) (A) (A) (A) (A) (A) (A) (A) (A) (A) (A)
                 (A) (A)
 The electronic state of the initial guess is 1-A.
 Leave Link  401 at Fri Jul 05 09:59:38 2019, MaxMem=  209715200 cpu:       6.0
 (Enter C:\G09W\l502.exe)
 Closed shell SCF:
 Requested convergence on RMS density matrix=1.00D-08 within 128 cycles.
 Requested convergence on MAX density matrix=1.00D-06.
 Requested convergence on             energy=1.00D-06.
 No special actions if energy rises.
 Using DIIS extrapolation, IDIIS=  1040.
 Integral symmetry usage will be decided dynamically.
       195906 words used for storage of precomputed grid.
 IEnd=      827031 IEndB=      827031 NGot=   209715200 MDV=   209107760
 LenX=   209107760 LenY=   208904810
 Fock matrices will be formed incrementally for  20 cycles.

 Cycle   1  Pass 1  IDiag  1:
 FoFCou: FMM=F IPFlag=           0 FMFlag=      100000 FMFlg1=           0
         NFxFlg=           0 DoJE=F BraDBF=F KetDBF=F FulRan=T
         Omega=  0.000000  0.000000  1.000000  0.000000  0.000000 ICntrl=       0 IOpCl=  0
         NMat0=    1 NMatS0=    1 NMatT0=    0 NMatD0=    1 NMtDS0=    0 NMtDT0=    0
         I1Cent=           0 NGrid=           0.
 Symmetry not used in FoFCou.
 E= -5738.36816207523    
 DIIS: error= 1.11D-01 at cycle   1 NSaved=   1.
 NSaved= 1 IEnMin= 1 EnMin= -5738.36816207523     IErMin= 1 ErrMin= 1.11D-01
 ErrMax= 1.11D-01 EMaxC= 1.00D-01 BMatC= 3.58D+00 BMatP= 3.58D+00
 IDIUse=3 WtCom= 0.00D+00 WtEn= 1.00D+00
 Coeff-Com:  0.100D+01
 Coeff-En:   0.100D+01
 Coeff:      0.100D+01
 Gap=     0.365 Goal=   None    Shift=    0.000
 GapD=    0.365 DampG=1.000 DampE=0.250 DampFc=0.2500 IDamp=-1.
 Damping current iteration by 2.50D-01
 RMSDP=6.52D-02 MaxDP=1.42D+01              OVMax= 2.52D-01

 Cycle   2  Pass 1  IDiag  1:
 RMSU=  1.07D-02    CP:  1.14D+00
 E= -5738.56997881857     Delta-E=       -0.201816743340 Rises=F Damp=T
 DIIS: error= 8.33D-02 at cycle   2 NSaved=   2.
 NSaved= 2 IEnMin= 2 EnMin= -5738.56997881857     IErMin= 2 ErrMin= 8.33D-02
 ErrMax= 8.33D-02 EMaxC= 1.00D-01 BMatC= 1.44D+00 BMatP= 3.58D+00
 IDIUse=3 WtCom= 1.67D-01 WtEn= 8.33D-01
 Coeff-Com: -0.136D+01 0.236D+01
 Coeff-En:   0.000D+00 0.100D+01
 Coeff:     -0.228D+00 0.123D+01
 Gap=     0.220 Goal=   None    Shift=    0.000
 RMSDP=1.46D-02 MaxDP=2.97D+00 DE=-2.02D-01 OVMax= 1.53D-01

 Cycle   3  Pass 1  IDiag  1:
 RMSU=  5.76D-03    CP:  8.99D-01  6.20D-01
 E= -5738.85593890167     Delta-E=       -0.285960083094 Rises=F Damp=F
 DIIS: error= 2.46D-02 at cycle   3 NSaved=   3.
 NSaved= 3 IEnMin= 3 EnMin= -5738.85593890167     IErMin= 3 ErrMin= 2.46D-02
 ErrMax= 2.46D-02 EMaxC= 1.00D-01 BMatC= 1.68D-01 BMatP= 1.44D+00
 IDIUse=3 WtCom= 7.54D-01 WtEn= 2.46D-01
 Coeff-Com:  0.539D+00-0.576D+00 0.104D+01
 Coeff-En:   0.984D-02 0.000D+00 0.990D+00
 Coeff:      0.409D+00-0.434D+00 0.103D+01
 Gap=     0.196 Goal=   None    Shift=    0.000
 RMSDP=7.01D-03 MaxDP=8.01D-01 DE=-2.86D-01 OVMax= 1.05D-01

 Cycle   4  Pass 1  IDiag  1:
 RMSU=  4.15D-03    CP:  9.84D-01  5.87D-01  1.03D+00
 E= -5738.83807765774     Delta-E=        0.017861243928 Rises=F Damp=F
 DIIS: error= 1.55D-02 at cycle   4 NSaved=   4.
 NSaved= 4 IEnMin= 3 EnMin= -5738.85593890167     IErMin= 4 ErrMin= 1.55D-02
 ErrMax= 1.55D-02 EMaxC= 1.00D-01 BMatC= 1.21D-01 BMatP= 1.68D-01
 IDIUse=3 WtCom= 8.45D-01 WtEn= 1.55D-01
 Coeff-Com:  0.440D+00-0.551D+00 0.723D+00 0.388D+00
 Coeff-En:   0.000D+00 0.000D+00 0.563D+00 0.437D+00
 Coeff:      0.372D+00-0.466D+00 0.699D+00 0.396D+00
 Gap=     0.236 Goal=   None    Shift=    0.000
 RMSDP=7.11D-03 MaxDP=1.24D+00 DE= 1.79D-02 OVMax= 8.70D-02

 Cycle   5  Pass 1  IDiag  1:
 RMSU=  6.73D-04    CP:  8.80D-01  3.96D-01  9.39D-01  2.54D-01
 E= -5738.91726145443     Delta-E=       -0.079183796691 Rises=F Damp=F
 DIIS: error= 2.50D-03 at cycle   5 NSaved=   5.
 NSaved= 5 IEnMin= 5 EnMin= -5738.91726145443     IErMin= 5 ErrMin= 2.50D-03
 ErrMax= 2.50D-03 EMaxC= 1.00D-01 BMatC= 2.84D-03 BMatP= 1.21D-01
 IDIUse=3 WtCom= 9.75D-01 WtEn= 2.50D-02
 Coeff-Com:  0.119D+00-0.149D+00 0.264D+00 0.197D+00 0.568D+00
 Coeff-En:   0.000D+00 0.000D+00 0.000D+00 0.000D+00 0.100D+01
 Coeff:      0.116D+00-0.145D+00 0.258D+00 0.192D+00 0.579D+00
 Gap=     0.179 Goal=   None    Shift=    0.000
 RMSDP=1.67D-03 MaxDP=2.98D-01 DE=-7.92D-02 OVMax= 1.38D-02

 Cycle   6  Pass 1  IDiag  1:
 RMSU=  3.49D-04    CP:  9.04D-01  4.42D-01  9.58D-01  4.11D-01  7.87D-01
 E= -5738.91913001026     Delta-E=       -0.001868555828 Rises=F Damp=F
 DIIS: error= 4.44D-04 at cycle   6 NSaved=   6.
 NSaved= 6 IEnMin= 6 EnMin= -5738.91913001026     IErMin= 6 ErrMin= 4.44D-04
 ErrMax= 4.44D-04 EMaxC= 1.00D-01 BMatC= 1.14D-04 BMatP= 2.84D-03
 IDIUse=3 WtCom= 9.96D-01 WtEn= 4.44D-03
 Coeff-Com:  0.319D-02-0.287D-02 0.346D-01 0.358D-01 0.257D+00 0.672D+00
 Coeff-En:   0.000D+00 0.000D+00 0.000D+00 0.000D+00 0.000D+00 0.100D+01
 Coeff:      0.318D-02-0.286D-02 0.345D-01 0.357D-01 0.256D+00 0.674D+00
 Gap=     0.180 Goal=   None    Shift=    0.000
 RMSDP=3.32D-04 MaxDP=5.36D-02 DE=-1.87D-03 OVMax= 2.45D-03

 Cycle   7  Pass 1  IDiag  1:
 RMSU=  6.33D-05    CP:  8.98D-01  4.36D-01  9.61D-01  3.87D-01  8.14D-01
                    CP:  7.67D-01
 E= -5738.91921877932     Delta-E=       -0.000088769061 Rises=F Damp=F
 DIIS: error= 1.79D-04 at cycle   7 NSaved=   7.
 NSaved= 7 IEnMin= 7 EnMin= -5738.91921877932     IErMin= 7 ErrMin= 1.79D-04
 ErrMax= 1.79D-04 EMaxC= 1.00D-01 BMatC= 1.38D-05 BMatP= 1.14D-04
 IDIUse=3 WtCom= 9.98D-01 WtEn= 1.79D-03
 Coeff-Com: -0.573D-02 0.792D-02 0.406D-02 0.836D-02 0.108D+00 0.380D+00
 Coeff-Com:  0.498D+00
 Coeff-En:   0.000D+00 0.000D+00 0.000D+00 0.000D+00 0.000D+00 0.218D-01
 Coeff-En:   0.978D+00
 Coeff:     -0.572D-02 0.790D-02 0.405D-02 0.834D-02 0.107D+00 0.379D+00
 Coeff:      0.499D+00
 Gap=     0.180 Goal=   None    Shift=    0.000
 RMSDP=5.76D-05 MaxDP=7.63D-03 DE=-8.88D-05 OVMax= 1.17D-03

 Cycle   8  Pass 1  IDiag  1:
 RMSU=  1.66D-05    CP:  8.99D-01  4.37D-01  9.60D-01  3.85D-01  8.20D-01
                    CP:  7.62D-01  5.61D-01
 E= -5738.91923086759     Delta-E=       -0.000012088273 Rises=F Damp=F
 DIIS: error= 7.52D-05 at cycle   8 NSaved=   8.
 NSaved= 8 IEnMin= 8 EnMin= -5738.91923086759     IErMin= 8 ErrMin= 7.52D-05
 ErrMax= 7.52D-05 EMaxC= 1.00D-01 BMatC= 1.27D-06 BMatP= 1.38D-05
 IDIUse=1 WtCom= 1.00D+00 WtEn= 0.00D+00
 Coeff-Com: -0.400D-02 0.536D-02-0.103D-02 0.175D-02 0.383D-01 0.158D+00
 Coeff-Com:  0.287D+00 0.515D+00
 Coeff:     -0.400D-02 0.536D-02-0.103D-02 0.175D-02 0.383D-01 0.158D+00
 Coeff:      0.287D+00 0.515D+00
 Gap=     0.180 Goal=   None    Shift=    0.000
 RMSDP=2.27D-05 MaxDP=3.13D-03 DE=-1.21D-05 OVMax= 3.89D-04

 Cycle   9  Pass 1  IDiag  1:
 RMSU=  6.71D-06    CP:  8.98D-01  4.37D-01  9.61D-01  3.84D-01  8.14D-01
                    CP:  7.40D-01  6.25D-01  7.78D-01
 E= -5738.91923204752     Delta-E=       -0.000001179932 Rises=F Damp=F
 DIIS: error= 2.37D-05 at cycle   9 NSaved=   9.
 NSaved= 9 IEnMin= 9 EnMin= -5738.91923204752     IErMin= 9 ErrMin= 2.37D-05
 ErrMax= 2.37D-05 EMaxC= 1.00D-01 BMatC= 1.12D-07 BMatP= 1.27D-06
 IDIUse=1 WtCom= 1.00D+00 WtEn= 0.00D+00
 Coeff-Com: -0.178D-02 0.236D-02-0.841D-03 0.489D-03 0.128D-01 0.584D-01
 Coeff-Com:  0.122D+00 0.301D+00 0.506D+00
 Coeff:     -0.178D-02 0.236D-02-0.841D-03 0.489D-03 0.128D-01 0.584D-01
 Coeff:      0.122D+00 0.301D+00 0.506D+00
 Gap=     0.180 Goal=   None    Shift=    0.000
 RMSDP=5.19D-06 MaxDP=6.84D-04 DE=-1.18D-06 OVMax= 1.28D-04

 Cycle  10  Pass 1  IDiag  1:
 RMSU=  1.87D-06    CP:  8.99D-01  4.37D-01  9.61D-01  3.84D-01  8.16D-01
                    CP:  7.44D-01  6.10D-01  7.90D-01  8.30D-01
 E= -5738.91923214849     Delta-E=       -0.000000100969 Rises=F Damp=F
 DIIS: error= 6.52D-06 at cycle  10 NSaved=  10.
 NSaved=10 IEnMin=10 EnMin= -5738.91923214849     IErMin=10 ErrMin= 6.52D-06
 ErrMax= 6.52D-06 EMaxC= 1.00D-01 BMatC= 7.82D-09 BMatP= 1.12D-07
 IDIUse=1 WtCom= 1.00D+00 WtEn= 0.00D+00
 Coeff-Com: -0.592D-03 0.781D-03-0.387D-03 0.128D-03 0.319D-02 0.154D-01
 Coeff-Com:  0.364D-01 0.108D+00 0.263D+00 0.574D+00
 Coeff:     -0.592D-03 0.781D-03-0.387D-03 0.128D-03 0.319D-02 0.154D-01
 Coeff:      0.364D-01 0.108D+00 0.263D+00 0.574D+00
 Gap=     0.180 Goal=   None    Shift=    0.000
 RMSDP=2.50D-06 MaxDP=2.41D-04 DE=-1.01D-07 OVMax= 4.74D-05

 Cycle  11  Pass 1  IDiag  1:
 RMSU=  7.37D-07    CP:  8.99D-01  4.37D-01  9.61D-01  3.85D-01  8.16D-01
                    CP:  7.43D-01  6.14D-01  8.05D-01  8.43D-01  8.61D-01
 E= -5738.91923215473     Delta-E=       -0.000000006237 Rises=F Damp=F
 DIIS: error= 2.45D-06 at cycle  11 NSaved=  11.
 NSaved=11 IEnMin=11 EnMin= -5738.91923215473     IErMin=11 ErrMin= 2.45D-06
 ErrMax= 2.45D-06 EMaxC= 1.00D-01 BMatC= 2.18D-09 BMatP= 7.82D-09
 IDIUse=1 WtCom= 1.00D+00 WtEn= 0.00D+00
 Coeff-Com: -0.532D-04 0.669D-04-0.963D-04-0.495D-05-0.368D-03-0.103D-02
 Coeff-Com:  0.115D-02 0.159D-01 0.858D-01 0.389D+00 0.509D+00
 Coeff:     -0.532D-04 0.669D-04-0.963D-04-0.495D-05-0.368D-03-0.103D-02
 Coeff:      0.115D-02 0.159D-01 0.858D-01 0.389D+00 0.509D+00
 Gap=     0.180 Goal=   None    Shift=    0.000
 RMSDP=8.33D-07 MaxDP=8.79D-05 DE=-6.24D-09 OVMax= 2.13D-05

 Cycle  12  Pass 1  IDiag  1:
 RMSU=  2.06D-07    CP:  8.99D-01  4.37D-01  9.61D-01  3.85D-01  8.16D-01
                    CP:  7.44D-01  6.16D-01  8.00D-01  8.39D-01  9.67D-01
                    CP:  7.80D-01
 E= -5738.91923215669     Delta-E=       -0.000000001957 Rises=F Damp=F
 DIIS: error= 4.29D-07 at cycle  12 NSaved=  12.
 NSaved=12 IEnMin=12 EnMin= -5738.91923215669     IErMin=12 ErrMin= 4.29D-07
 ErrMax= 4.29D-07 EMaxC= 1.00D-01 BMatC= 1.76D-10 BMatP= 2.18D-09
 IDIUse=1 WtCom= 1.00D+00 WtEn= 0.00D+00
 Coeff-Com:  0.241D-04-0.335D-04-0.172D-04-0.253D-04-0.450D-03-0.176D-02
 Coeff-Com: -0.252D-02-0.310D-02 0.145D-01 0.134D+00 0.274D+00 0.585D+00
 Coeff:      0.241D-04-0.335D-04-0.172D-04-0.253D-04-0.450D-03-0.176D-02
 Coeff:     -0.252D-02-0.310D-02 0.145D-01 0.134D+00 0.274D+00 0.585D+00
 Gap=     0.180 Goal=   None    Shift=    0.000
 RMSDP=2.13D-07 MaxDP=2.57D-05 DE=-1.96D-09 OVMax= 4.13D-06

 Cycle  13  Pass 1  IDiag  1:
 RMSU=  8.69D-08    CP:  8.99D-01  4.37D-01  9.61D-01  3.85D-01  8.16D-01
                    CP:  7.44D-01  6.15D-01  8.02D-01  8.45D-01  9.50D-01
                    CP:  7.61D-01  8.02D-01
 E= -5738.91923215674     Delta-E=       -0.000000000054 Rises=F Damp=F
 DIIS: error= 1.15D-07 at cycle  13 NSaved=  13.
 NSaved=13 IEnMin=13 EnMin= -5738.91923215674     IErMin=13 ErrMin= 1.15D-07
 ErrMax= 1.15D-07 EMaxC= 1.00D-01 BMatC= 1.05D-11 BMatP= 1.76D-10
 IDIUse=1 WtCom= 1.00D+00 WtEn= 0.00D+00
 Coeff-Com:  0.113D-04-0.155D-04-0.392D-05-0.134D-04-0.149D-03-0.574D-03
 Coeff-Com: -0.934D-03-0.221D-02 0.982D-03 0.313D-01 0.874D-01 0.266D+00
 Coeff-Com:  0.618D+00
 Coeff:      0.113D-04-0.155D-04-0.392D-05-0.134D-04-0.149D-03-0.574D-03
 Coeff:     -0.934D-03-0.221D-02 0.982D-03 0.313D-01 0.874D-01 0.266D+00
 Coeff:      0.618D+00
 Gap=     0.180 Goal=   None    Shift=    0.000
 RMSDP=1.23D-07 MaxDP=2.11D-05 DE=-5.37D-11 OVMax= 8.84D-07

 Cycle  14  Pass 1  IDiag  1:
 RMSU=  3.47D-08    CP:  8.99D-01  4.37D-01  9.61D-01  3.85D-01  8.16D-01
                    CP:  7.44D-01  6.15D-01  8.02D-01  8.44D-01  9.47D-01
                    CP:  7.54D-01  8.12D-01  8.51D-01
 E= -5738.91923215674     Delta-E=       -0.000000000003 Rises=F Damp=F
 DIIS: error= 2.77D-08 at cycle  14 NSaved=  14.
 NSaved=14 IEnMin=14 EnMin= -5738.91923215674     IErMin=14 ErrMin= 2.77D-08
 ErrMax= 2.77D-08 EMaxC= 1.00D-01 BMatC= 7.61D-13 BMatP= 1.05D-11
 IDIUse=1 WtCom= 1.00D+00 WtEn= 0.00D+00
 Coeff-Com:  0.272D-05-0.371D-05-0.510D-06-0.377D-05-0.223D-04-0.826D-04
 Coeff-Com: -0.160D-03-0.650D-03-0.753D-03 0.469D-03 0.114D-01 0.532D-01
 Coeff-Com:  0.258D+00 0.679D+00
 Coeff:      0.272D-05-0.371D-05-0.510D-06-0.377D-05-0.223D-04-0.826D-04
 Coeff:     -0.160D-03-0.650D-03-0.753D-03 0.469D-03 0.114D-01 0.532D-01
 Coeff:      0.258D+00 0.679D+00
 Gap=     0.180 Goal=   None    Shift=    0.000
 RMSDP=3.76D-08 MaxDP=6.61D-06 DE=-2.73D-12 OVMax= 2.88D-07

 Cycle  15  Pass 1  IDiag  1:
 RMSU=  6.88D-09    CP:  8.99D-01  4.37D-01  9.61D-01  3.85D-01  8.16D-01
                    CP:  7.44D-01  6.15D-01  8.02D-01  8.44D-01  9.51D-01
                    CP:  7.65D-01  8.25D-01  8.35D-01  7.97D-01
 E= -5738.91923215691     Delta-E=       -0.000000000171 Rises=F Damp=F
 DIIS: error= 1.29D-08 at cycle  15 NSaved=  15.
 NSaved=15 IEnMin=15 EnMin= -5738.91923215691     IErMin=15 ErrMin= 1.29D-08
 ErrMax= 1.29D-08 EMaxC= 1.00D-01 BMatC= 9.64D-14 BMatP= 7.61D-13
 IDIUse=1 WtCom= 1.00D+00 WtEn= 0.00D+00
 Coeff-Com:  0.631D-06-0.866D-06-0.167D-06-0.113D-05-0.362D-05-0.121D-04
 Coeff-Com: -0.279D-04-0.175D-03-0.273D-03-0.101D-02 0.125D-02 0.112D-01
 Coeff-Com:  0.901D-01 0.339D+00 0.560D+00
 Coeff:      0.631D-06-0.866D-06-0.167D-06-0.113D-05-0.362D-05-0.121D-04
 Coeff:     -0.279D-04-0.175D-03-0.273D-03-0.101D-02 0.125D-02 0.112D-01
 Coeff:      0.901D-01 0.339D+00 0.560D+00
 Gap=     0.180 Goal=   None    Shift=    0.000
 RMSDP=8.88D-09 MaxDP=1.66D-06 DE=-1.71D-10 OVMax= 8.54D-08

 Cycle  16  Pass 1  IDiag  1:
 RMSU=  1.96D-09    CP:  8.99D-01  4.37D-01  9.61D-01  3.85D-01  8.16D-01
                    CP:  7.44D-01  6.15D-01  8.02D-01  8.44D-01  9.50D-01
                    CP:  7.65D-01  8.25D-01  8.50D-01  7.99D-01  8.18D-01
 E= -5738.91923215674     Delta-E=        0.000000000176 Rises=F Damp=F
 DIIS: error= 4.79D-09 at cycle  16 NSaved=  16.
 NSaved=16 IEnMin=15 EnMin= -5738.91923215691     IErMin=16 ErrMin= 4.79D-09
 ErrMax= 4.79D-09 EMaxC= 1.00D-01 BMatC= 1.50D-14 BMatP= 9.64D-14
 IDIUse=1 WtCom= 1.00D+00 WtEn= 0.00D+00
 Coeff-Com:  0.842D-07-0.110D-06 0.928D-07-0.558D-07 0.791D-07-0.210D-06
 Coeff-Com: -0.261D-05-0.176D-04-0.558D-04-0.605D-03-0.115D-02-0.217D-02
 Coeff-Com:  0.888D-02 0.774D-01 0.303D+00 0.615D+00
 Coeff:      0.842D-07-0.110D-06 0.928D-07-0.558D-07 0.791D-07-0.210D-06
 Coeff:     -0.261D-05-0.176D-04-0.558D-04-0.605D-03-0.115D-02-0.217D-02
 Coeff:      0.888D-02 0.774D-01 0.303D+00 0.615D+00
 Gap=     0.180 Goal=   None    Shift=    0.000
 RMSDP=2.75D-09 MaxDP=3.65D-07 DE= 1.76D-10 OVMax= 2.83D-08

 SCF Done:  E(RB3LYP) =  -5738.91923216     A.U. after   16 cycles
             Convg  =    0.2752D-08             -V/T =  2.0014
 KE= 5.731017702343D+03 PE=-1.677092163266D+04 EE= 3.756432575864D+03
 Leave Link  502 at Fri Jul 05 10:07:00 2019, MaxMem=  209715200 cpu:     442.0
 (Enter C:\G09W\l601.exe)
 Copying SCF densities to generalized density rwf, IOpCl= 0 IROHF=0.

 **********************************************************************

            Population analysis using the SCF density.

 **********************************************************************

 Orbital symmetries:
       Occupied  (A) (A) (A) (A) (A) (A) (A) (A) (A) (A) (A) (A)
                 (A) (A) (A) (A) (A) (A) (A) (A) (A) (A) (A) (A)
                 (A) (A) (A) (A) (A) (A) (A) (A) (A) (A) (A) (A)
                 (A) (A) (A) (A) (A) (A) (A) (A) (A) (A) (A) (A)
                 (A) (A) (A) (A) (A) (A) (A) (A) (A) (A) (A) (A)
                 (A) (A) (A) (A) (A) (A) (A) (A) (A) (A) (A) (A)
                 (A) (A) (A) (A) (A) (A) (A) (A)
       Virtual   (A) (A) (A) (A) (A) (A) (A) (A) (A) (A) (A) (A)
                 (A) (A) (A) (A) (A) (A) (A) (A) (A) (A) (A) (A)
                 (A) (A) (A) (A) (A) (A) (A) (A) (A) (A) (A) (A)
                 (A) (A) (A) (A) (A) (A) (A) (A) (A) (A) (A) (A)
                 (A) (A) (A) (A) (A) (A) (A) (A) (A) (A) (A) (A)
                 (A) (A) (A) (A) (A) (A) (A) (A) (A) (A) (A) (A)
                 (A) (A) (A) (A) (A) (A) (A) (A) (A) (A) (A) (A)
                 (A) (A) (A) (A) (A) (A) (A) (A) (A) (A) (A) (A)
                 (A) (A) (A) (A) (A) (A) (A) (A) (A) (A) (A) (A)
                 (A) (A) (A) (A) (A) (A) (A) (A) (A) (A) (A) (A)
                 (A) (A) (A) (A) (A) (A) (A) (A) (A) (A) (A) (A)
                 (A) (A) (A) (A) (A) (A) (A) (A) (A) (A) (A) (A)
                 (A) (A) (A) (A) (A) (A) (A) (A) (A) (A) (A) (A)
                 (A) (A) (A) (A) (A) (A) (A) (A) (A) (A) (A) (A)
                 (A) (A) (A) (A) (A) (A) (A) (A) (A) (A) (A) (A)
                 (A) (A) (A) (A) (A) (A) (A) (A) (A) (A) (A) (A)
                 (A) (A) (A) (A) (A) (A) (A) (A) (A) (A) (A) (A)
                 (A) (A) (A) (A) (A) (A) (A) (A) (A) (A) (A) (A)
                 (A) (A) (A) (A) (A) (A) (A) (A) (A) (A) (A) (A)
                 (A) (A) (A) (A) (A) (A) (A) (A) (A) (A) (A) (A)
                 (A) (A) (A) (A) (A) (A) (A) (A) (A) (A) (A) (A)
                 (A) (A) (A) (A) (A) (A) (A) (A) (A) (A) (A) (A)
                 (A) (A) (A) (A) (A) (A) (A) (A) (A) (A) (A) (A)
                 (A) (A) (A) (A) (A) (A) (A) (A) (A) (A) (A) (A)
                 (A) (A) (A) (A) (A) (A) (A) (A) (A) (A) (A) (A)
                 (A) (A) (A) (A) (A) (A) (A) (A) (A) (A) (A) (A)
                 (A) (A) (A) (A) (A) (A) (A) (A) (A) (A) (A) (A)
                 (A) (A) (A) (A) (A) (A) (A) (A) (A) (A) (A) (A)
                 (A) (A) (A) (A) (A) (A) (A) (A) (A) (A) (A) (A)
                 (A) (A)
 The electronic state is 1-A.
 Alpha  occ. eigenvalues -- -482.85184-482.84661 -62.50479 -62.49933 -56.32514
 Alpha  occ. eigenvalues --  -56.32128 -56.32112 -56.31973 -56.31576 -56.31574
 Alpha  occ. eigenvalues --  -19.17393 -19.10398 -14.37987 -10.30033 -10.26358
 Alpha  occ. eigenvalues --  -10.26100 -10.26059 -10.25500 -10.22589 -10.21798
 Alpha  occ. eigenvalues --  -10.21784 -10.21738 -10.21714  -8.71462  -8.70915
 Alpha  occ. eigenvalues --   -6.54612  -6.54075  -6.53312  -6.53277  -6.52746
 Alpha  occ. eigenvalues --   -6.52732  -2.65708  -2.65334  -2.65310  -2.65171
 Alpha  occ. eigenvalues --   -2.64781  -2.64768  -2.64276  -2.64276  -2.63715
 Alpha  occ. eigenvalues --   -2.63714  -1.13048  -1.04500  -1.00217  -0.91452
 Alpha  occ. eigenvalues --   -0.86167  -0.83285  -0.80059  -0.79242  -0.75672
 Alpha  occ. eigenvalues --   -0.74489  -0.66580  -0.65573  -0.62635  -0.60423
 Alpha  occ. eigenvalues --   -0.56043  -0.54541  -0.53117  -0.51758  -0.51521
 Alpha  occ. eigenvalues --   -0.50140  -0.47767  -0.47260  -0.44216  -0.42940
 Alpha  occ. eigenvalues --   -0.42832  -0.41246  -0.41096  -0.40074  -0.38873
 Alpha  occ. eigenvalues --   -0.38731  -0.34876  -0.32597  -0.31465  -0.31200
 Alpha  occ. eigenvalues --   -0.30988  -0.30299  -0.28496  -0.27766  -0.24017
 Alpha virt. eigenvalues --   -0.06047  -0.05776  -0.03541  -0.03081  -0.01952
 Alpha virt. eigenvalues --   -0.01800  -0.00658  -0.00469   0.00714   0.01482
 Alpha virt. eigenvalues --    0.02249   0.02274   0.03235   0.03713   0.04512
 Alpha virt. eigenvalues --    0.04841   0.05142   0.05679   0.06228   0.06479
 Alpha virt. eigenvalues --    0.06924   0.07346   0.08026   0.08248   0.08581
 Alpha virt. eigenvalues --    0.09068   0.09524   0.09823   0.09883   0.10235
 Alpha virt. eigenvalues --    0.10566   0.10909   0.11293   0.11631   0.11949
 Alpha virt. eigenvalues --    0.12350   0.12712   0.12917   0.13235   0.13690
 Alpha virt. eigenvalues --    0.14094   0.14776   0.14877   0.15173   0.15657
 Alpha virt. eigenvalues --    0.16247   0.16438   0.17191   0.17525   0.17924
 Alpha virt. eigenvalues --    0.18695   0.19092   0.19297   0.20012   0.20656
 Alpha virt. eigenvalues --    0.21015   0.21466   0.22138   0.22389   0.22734
 Alpha virt. eigenvalues --    0.23157   0.23655   0.24364   0.24677   0.25353
 Alpha virt. eigenvalues --    0.25815   0.26155   0.26575   0.27053   0.27521
 Alpha virt. eigenvalues --    0.28195   0.29046   0.29696   0.30048   0.30882
 Alpha virt. eigenvalues --    0.31121   0.31487   0.32009   0.32253   0.33103
 Alpha virt. eigenvalues --    0.33455   0.33786   0.34723   0.35705   0.36542
 Alpha virt. eigenvalues --    0.36783   0.38026   0.39675   0.40183   0.41093
 Alpha virt. eigenvalues --    0.41808   0.42588   0.42789   0.43551   0.44725
 Alpha virt. eigenvalues --    0.47456   0.48243   0.48566   0.49417   0.50645
 Alpha virt. eigenvalues --    0.52097   0.52730   0.53085   0.53865   0.54377
 Alpha virt. eigenvalues --    0.55382   0.56163   0.57334   0.57520   0.57803
 Alpha virt. eigenvalues --    0.58252   0.58546   0.59498   0.60305   0.61683
 Alpha virt. eigenvalues --    0.62043   0.63766   0.63948   0.64301   0.65538
 Alpha virt. eigenvalues --    0.66397   0.67099   0.68057   0.69475   0.69658
 Alpha virt. eigenvalues --    0.70890   0.70996   0.71961   0.72499   0.73146
 Alpha virt. eigenvalues --    0.73801   0.75122   0.75837   0.76746   0.77840
 Alpha virt. eigenvalues --    0.78283   0.81167   0.81740   0.82822   0.82989
 Alpha virt. eigenvalues --    0.84075   0.85049   0.86093   0.86664   0.87973
 Alpha virt. eigenvalues --    0.88630   0.88832   0.90421   0.92354   0.94065
 Alpha virt. eigenvalues --    0.94763   0.95735   0.97563   0.97959   0.99161
 Alpha virt. eigenvalues --    1.01628   1.03028   1.04059   1.04631   1.04802
 Alpha virt. eigenvalues --    1.06226   1.07841   1.09154   1.09891   1.12017
 Alpha virt. eigenvalues --    1.13953   1.14413   1.18248   1.21066   1.21616
 Alpha virt. eigenvalues --    1.22546   1.23856   1.24425   1.26497   1.26802
 Alpha virt. eigenvalues --    1.28552   1.31996   1.36869   1.38636   1.40089
 Alpha virt. eigenvalues --    1.41274   1.44136   1.45530   1.48021   1.51243
 Alpha virt. eigenvalues --    1.52846   1.53868   1.54210   1.57038   1.59058
 Alpha virt. eigenvalues --    1.59610   1.60405   1.63886   1.64476   1.65756
 Alpha virt. eigenvalues --    1.68291   1.69120   1.69721   1.69998   1.72204
 Alpha virt. eigenvalues --    1.74472   1.76011   1.78661   1.80784   1.82176
 Alpha virt. eigenvalues --    1.84953   1.87133   1.88285   1.88368   1.89358
 Alpha virt. eigenvalues --    1.90078   1.90488   1.93069   1.93937   1.94994
 Alpha virt. eigenvalues --    1.98035   1.99909   2.00833   2.01872   2.02440
 Alpha virt. eigenvalues --    2.04570   2.05675   2.05750   2.06890   2.11452
 Alpha virt. eigenvalues --    2.12354   2.13896   2.16486   2.17655   2.19646
 Alpha virt. eigenvalues --    2.20377   2.24511   2.25719   2.29359   2.31104
 Alpha virt. eigenvalues --    2.33937   2.38707   2.41461   2.43211   2.46250
 Alpha virt. eigenvalues --    2.51548   2.52814   2.53744   2.57768   2.59720
 Alpha virt. eigenvalues --    2.61499   2.63300   2.63831   2.65336   2.66500
 Alpha virt. eigenvalues --    2.68957   2.70712   2.72330   2.73483   2.75904
 Alpha virt. eigenvalues --    2.77149   2.79133   2.79451   2.83141   2.86103
 Alpha virt. eigenvalues --    2.86713   2.88566   2.90931   2.91240   2.94417
 Alpha virt. eigenvalues --    2.96225   2.98387   3.00498   3.01092   3.03684
 Alpha virt. eigenvalues --    3.08073   3.10135   3.11174   3.14177   3.15023
 Alpha virt. eigenvalues --    3.17189   3.18736   3.23888   3.25643   3.33533
 Alpha virt. eigenvalues --    3.37923   3.42142   3.46271   3.46745   3.48031
 Alpha virt. eigenvalues --    3.60518   3.62027   3.65622   3.73167   3.77281
 Alpha virt. eigenvalues --    3.79289   3.92367   3.96560   3.98439   4.01857
 Alpha virt. eigenvalues --    4.05438   4.11658   4.12168   4.12305   4.13004
 Alpha virt. eigenvalues --    4.14081   4.17735   4.19430   4.20631   4.22544
 Alpha virt. eigenvalues --    4.33155   4.36583   4.38720   4.55881   4.59014
 Alpha virt. eigenvalues --    4.82345   4.83746   5.02218   5.06898   5.09078
 Alpha virt. eigenvalues --    5.18997   5.43518   5.70069   5.90812   6.75302
 Alpha virt. eigenvalues --    6.77699   7.54312   7.55460   7.64873   7.67190
 Alpha virt. eigenvalues --    7.72354   7.76695  23.53995  23.62591  23.85453
 Alpha virt. eigenvalues --   23.90731  23.93877  23.96085  24.05025  24.09550
 Alpha virt. eigenvalues --   24.18242  24.20815  35.65121  48.00656  48.02434
 Alpha virt. eigenvalues --   49.90786  50.08621 289.74084 289.75120 289.84464
 Alpha virt. eigenvalues --  289.87166 289.94655 289.986491020.819341020.83982
          Condensed to atoms (all electrons):
              1          2          3          4          5          6
     1  C   11.364019  -0.372980  -4.698695   0.752957  -0.854119  -0.293413
     2  C   -0.372980  11.777958  -1.324473  -0.788423  -0.216484  -1.255176
     3  C   -4.698695  -1.324473  11.595036  -0.397643  -0.529790   0.683692
     4  C    0.752957  -0.788423  -0.397643   6.922091   0.054306  -0.795235
     5  C   -0.854119  -0.216484  -0.529790   0.054306   7.338296   0.323826
     6  C   -0.293413  -1.255176   0.683692  -0.795235   0.323826   7.033217
     7  N   -0.196125  -0.603495   0.056633   0.057873   0.047288   0.134065
     8  C   -0.673549  -0.057480   0.574445   0.048497  -0.067676   0.003774
     9  C    0.054466  -0.759442  -0.100178  -0.025860   0.004874  -0.031287
    10  C    0.419377   0.502082  -0.577123  -0.040472   0.016194  -0.084345
    11  C   -0.029227  -0.186404   0.092146   0.010121  -0.000940   0.024743
    12  O   -0.004768   0.018849  -0.011821  -0.000687  -0.001955  -0.006596
    13  Br  -0.000464   0.042406  -0.001279  -0.000995  -0.000504  -0.006056
    14  O    0.001153  -0.000734   0.000929   0.000055   0.000078   0.000280
    15  Br   0.046790   0.071523   0.050430   0.008974   0.009370   0.024935
    16  H    0.541321  -0.037370  -0.091692   0.029610   0.005043  -0.111008
    17  H   -0.092655  -0.048316   0.598627  -0.115427   0.008620   0.019482
    18  H    0.050574   0.006294  -0.100619   0.432594  -0.106337   0.011805
    19  H   -0.065840   0.007386   0.058510   0.017247  -0.118595   0.395524
    20  H    0.011427  -0.162757  -0.015715   0.010092   0.014657   0.032610
    21  H   -0.034577   0.140235  -0.005519  -0.014521  -0.005610  -0.022495
    22  H    0.038549  -0.129009  -0.005434   0.012634   0.015961   0.028039
              7          8          9         10         11         12
     1  C   -0.196125  -0.673549   0.054466   0.419377  -0.029227  -0.004768
     2  C   -0.603495  -0.057480  -0.759442   0.502082  -0.186404   0.018849
     3  C    0.056633   0.574445  -0.100178  -0.577123   0.092146  -0.011821
     4  C    0.057873   0.048497  -0.025860  -0.040472   0.010121  -0.000687
     5  C    0.047288  -0.067676   0.004874   0.016194  -0.000940  -0.001955
     6  C    0.134065   0.003774  -0.031287  -0.084345   0.024743  -0.006596
     7  N    7.497858   0.025977  -0.178746  -0.439571   0.179284  -0.021217
     8  C    0.025977  17.770458 -10.669343  -2.521813   1.813847   0.262752
     9  C   -0.178746 -10.669343  18.268731   1.354060  -1.658169  -0.450927
    10  C   -0.439571  -2.521813   1.354060   7.689768  -1.014605   0.265165
    11  C    0.179284   1.813847  -1.658169  -1.014605   6.197737   0.094062
    12  O   -0.021217   0.262752  -0.450927   0.265165   0.094062   8.174809
    13  Br  -0.060872  -0.161750   0.318912   0.035178  -0.125400   0.006607
    14  O    0.001981  -0.084228  -0.088310   0.040695   0.450124  -0.090236
    15  Br  -0.001983  -0.004886   0.000694   0.001798  -0.000166  -0.000015
    16  H   -0.010429   0.016477  -0.024436  -0.011357  -0.001449   0.001070
    17  H   -0.041753  -0.013550  -0.019263   0.022660  -0.003980  -0.000188
    18  H   -0.000761   0.005601   0.000960  -0.003430   0.000095   0.000035
    19  H   -0.006513  -0.001127   0.004047   0.004144  -0.000772   0.000017
    20  H    0.410577   0.204462  -0.202459  -0.070247   0.029683  -0.003569
    21  H   -0.005421  -0.066466  -0.067776   0.429348  -0.016481  -0.048784
    22  H    0.019282   0.162108  -0.038659   0.180782   0.053449  -0.067944
             13         14         15         16         17         18
     1  C   -0.000464   0.001153   0.046790   0.541321  -0.092655   0.050574
     2  C    0.042406  -0.000734   0.071523  -0.037370  -0.048316   0.006294
     3  C   -0.001279   0.000929   0.050430  -0.091692   0.598627  -0.100619
     4  C   -0.000995   0.000055   0.008974   0.029610  -0.115427   0.432594
     5  C   -0.000504   0.000078   0.009370   0.005043   0.008620  -0.106337
     6  C   -0.006056   0.000280   0.024935  -0.111008   0.019482   0.011805
     7  N   -0.060872   0.001981  -0.001983  -0.010429  -0.041753  -0.000761
     8  C   -0.161750  -0.084228  -0.004886   0.016477  -0.013550   0.005601
     9  C    0.318912  -0.088310   0.000694  -0.024436  -0.019263   0.000960
    10  C    0.035178   0.040695   0.001798  -0.011357   0.022660  -0.003430
    11  C   -0.125400   0.450124  -0.000166  -0.001449  -0.003980   0.000095
    12  O    0.006607  -0.090236  -0.000015   0.001070  -0.000188   0.000035
    13  Br  35.026642  -0.008574  -0.000020   0.001017   0.001531  -0.000048
    14  O   -0.008574   8.083626   0.000000   0.000149   0.000019  -0.000001
    15  Br  -0.000020   0.000000  35.020022   0.002605   0.003395  -0.040780
    16  H    0.001017   0.000149   0.002605   0.528679  -0.004735   0.002434
    17  H    0.001531   0.000019   0.003395  -0.004735   0.531556  -0.023529
    18  H   -0.000048  -0.000001  -0.040780   0.002434  -0.023529   0.529316
    19  H    0.000004  -0.000010  -0.041274  -0.023031   0.002851   0.000220
    20  H    0.017206   0.000102  -0.000279   0.001616  -0.002630   0.000316
    21  H    0.002690  -0.000045  -0.000473   0.000141  -0.000286  -0.000303
    22  H   -0.001327   0.003273   0.000050  -0.003922  -0.001067  -0.000009
             19         20         21         22
     1  C   -0.065840   0.011427  -0.034577   0.038549
     2  C    0.007386  -0.162757   0.140235  -0.129009
     3  C    0.058510  -0.015715  -0.005519  -0.005434
     4  C    0.017247   0.010092  -0.014521   0.012634
     5  C   -0.118595   0.014657  -0.005610   0.015961
     6  C    0.395524   0.032610  -0.022495   0.028039
     7  N   -0.006513   0.410577  -0.005421   0.019282
     8  C   -0.001127   0.204462  -0.066466   0.162108
     9  C    0.004047  -0.202459  -0.067776  -0.038659
    10  C    0.004144  -0.070247   0.429348   0.180782
    11  C   -0.000772   0.029683  -0.016481   0.053449
    12  O    0.000017  -0.003569  -0.048784  -0.067944
    13  Br   0.000004   0.017206   0.002690  -0.001327
    14  O   -0.000010   0.000102  -0.000045   0.003273
    15  Br  -0.041274  -0.000279  -0.000473   0.000050
    16  H   -0.023031   0.001616   0.000141  -0.003922
    17  H    0.002851  -0.002630  -0.000286  -0.001067
    18  H    0.000220   0.000316  -0.000303  -0.000009
    19  H    0.533064  -0.000987   0.000730  -0.001963
    20  H   -0.000987   0.404998  -0.006184   0.008113
    21  H    0.000730  -0.006184   0.619177  -0.100552
    22  H   -0.001963   0.008113  -0.100552   0.637142
 Mulliken atomic charges:
              1
     1  C    0.035780
     2  C   -0.624190
     3  C    0.149535
     4  C   -0.177788
     5  C    0.063494
     6  C   -0.110379
     7  N    0.136068
     8  C   -0.566531
     9  C    0.308111
    10  C   -0.198289
    11  C    0.092303
    12  O   -0.114660
    13  Br  -0.084905
    14  O   -0.310326
    15  Br  -0.150710
    16  H    0.189268
    17  H    0.178637
    18  H    0.235575
    19  H    0.236368
    20  H    0.318965
    21  H    0.203173
    22  H    0.190503
 Sum of Mulliken atomic charges =   0.00000
 Mulliken charges with hydrogens summed into heavy atoms:
              1
     1  C    0.225048
     2  C   -0.624190
     3  C    0.328172
     4  C    0.057786
     5  C    0.063494
     6  C    0.125989
     7  N    0.455034
     8  C   -0.566531
     9  C    0.308111
    10  C    0.195387
    11  C    0.092303
    12  O   -0.114660
    13  Br  -0.084905
    14  O   -0.310326
    15  Br  -0.150710
 Sum of Mulliken charges with hydrogens summed into heavy atoms =   0.00000
 Electronic spatial extent (au):  <R**2>=           8795.4655
 Charge=              0.0000 electrons
 Dipole moment (field-independent basis, Debye):
    X=             -5.9267    Y=             -2.8253    Z=              0.3510  Tot=              6.5751
 Quadrupole moment (field-independent basis, Debye-Ang):
   XX=           -147.8633   YY=           -116.4116   ZZ=           -105.8763
   XY=            -14.7093   XZ=              2.1269   YZ=              4.3679
 Traceless Quadrupole moment (field-independent basis, Debye-Ang):
   XX=            -24.4795   YY=              6.9721   ZZ=             17.5075
   XY=            -14.7093   XZ=              2.1269   YZ=              4.3679
 Octapole moment (field-independent basis, Debye-Ang**2):
  XXX=           -168.9421  YYY=            -56.3283  ZZZ=              0.9536  XYY=            -32.1981
  XXY=            -80.1854  XXZ=              9.1068  XZZ=            -14.7607  YZZ=             -6.6522
  YYZ=              2.4690  XYZ=             -2.6767
 Hexadecapole moment (field-independent basis, Debye-Ang**3):
 XXXX=          -8667.3430 YYYY=           -999.4434 ZZZZ=           -328.2189 XXXY=           -521.9188
 XXXZ=             73.1626 YYYX=           -263.7402 YYYZ=              1.6824 ZZZX=             12.4241
 ZZZY=              9.0272 XXYY=          -1624.7939 XXZZ=          -1356.9375 YYZZ=           -209.5023
 XXYZ=             38.7095 YYXZ=             24.6091 ZZXY=            -37.3701
 N-N= 1.544552122300D+03 E-N=-1.677092163371D+04  KE= 5.731017702343D+03
 No NMR shielding tensors so no spin-rotation constants.
 Leave Link  601 at Fri Jul 05 10:07:01 2019, MaxMem=  209715200 cpu:       1.0
 (Enter C:\G09W\l607.exe)
 ******************************Gaussian NBO Version 3.1******************************
             N A T U R A L   A T O M I C   O R B I T A L   A N D
          N A T U R A L   B O N D   O R B I T A L   A N A L Y S I S
 ******************************Gaussian NBO Version 3.1******************************
       /RESON  / : Allow strongly delocalized NBO set

 Analyzing the SCF density

 Job title: 8h.log                                                          

 Storage needed:    559331 in NPA,    744869 in NBO ( 209713709 available)


 NATURAL POPULATIONS:  Natural atomic orbital occupancies 
                                                          
   NAO  Atom  No  lang   Type(AO)    Occupancy      Energy
 ----------------------------------------------------------
     1    C    1  S      Cor( 1S)     1.99903     -10.06604
     2    C    1  S      Val( 2S)     0.94252      -0.18901
     3    C    1  S      Ryd( 4S)     0.00125       0.91178
     4    C    1  S      Ryd( 3S)     0.00012       0.64653
     5    C    1  S      Ryd( 5S)     0.00001      23.05732
     6    C    1  px     Val( 2p)     1.09109      -0.08788
     7    C    1  px     Ryd( 4p)     0.00426       1.00694
     8    C    1  px     Ryd( 3p)     0.00028       0.43950
     9    C    1  px     Ryd( 5p)     0.00014       3.02872
    10    C    1  py     Val( 2p)     1.01521      -0.14018
    11    C    1  py     Ryd( 4p)     0.00183       0.61473
    12    C    1  py     Ryd( 3p)     0.00035       0.35446
    13    C    1  py     Ryd( 5p)     0.00005       2.74466
    14    C    1  pz     Val( 2p)     1.12391      -0.09978
    15    C    1  pz     Ryd( 4p)     0.00460       0.98164
    16    C    1  pz     Ryd( 3p)     0.00021       0.44762
    17    C    1  pz     Ryd( 5p)     0.00008       2.99398
    18    C    1  dxy    Ryd( 3d)     0.00054       1.79610
    19    C    1  dxz    Ryd( 3d)     0.00076       2.36973
    20    C    1  dyz    Ryd( 3d)     0.00049       1.92728
    21    C    1  dx2y2  Ryd( 3d)     0.00049       2.17640
    22    C    1  dz2    Ryd( 3d)     0.00057       2.14412

    23    C    2  S      Cor( 1S)     1.99891     -10.11236
    24    C    2  S      Val( 2S)     0.83311      -0.15555
    25    C    2  S      Ryd( 4S)     0.00122       0.85947
    26    C    2  S      Ryd( 3S)     0.00011       0.77380
    27    C    2  S      Ryd( 5S)     0.00002      22.93101
    28    C    2  px     Val( 2p)     0.87739      -0.06417
    29    C    2  px     Ryd( 4p)     0.00618       1.27914
    30    C    2  px     Ryd( 3p)     0.00012       0.88837
    31    C    2  px     Ryd( 5p)     0.00010       2.81165
    32    C    2  py     Val( 2p)     1.05738      -0.14834
    33    C    2  py     Ryd( 4p)     0.00410       0.71097
    34    C    2  py     Ryd( 3p)     0.00014       0.68536
    35    C    2  py     Ryd( 5p)     0.00006       2.59370
    36    C    2  pz     Val( 2p)     1.08585      -0.10950
    37    C    2  pz     Ryd( 4p)     0.00300       0.96896
    38    C    2  pz     Ryd( 3p)     0.00030       0.75056
    39    C    2  pz     Ryd( 5p)     0.00018       2.74090
    40    C    2  dxy    Ryd( 3d)     0.00060       1.91496
    41    C    2  dxz    Ryd( 3d)     0.00158       2.45703
    42    C    2  dyz    Ryd( 3d)     0.00053       1.96966
    43    C    2  dx2y2  Ryd( 3d)     0.00091       2.11399
    44    C    2  dz2    Ryd( 3d)     0.00081       2.12664

    45    C    3  S      Cor( 1S)     1.99903     -10.06581
    46    C    3  S      Val( 2S)     0.94245      -0.18869
    47    C    3  S      Ryd( 4S)     0.00136       0.89192
    48    C    3  S      Ryd( 3S)     0.00013       0.53606
    49    C    3  S      Ryd( 5S)     0.00001      23.09801
    50    C    3  px     Val( 2p)     1.08765      -0.08683
    51    C    3  px     Ryd( 4p)     0.00425       1.02633
    52    C    3  px     Ryd( 3p)     0.00027       0.43742
    53    C    3  px     Ryd( 5p)     0.00013       3.00460
    54    C    3  py     Val( 2p)     1.02559      -0.13935
    55    C    3  py     Ryd( 4p)     0.00199       0.65261
    56    C    3  py     Ryd( 3p)     0.00039       0.35418
    57    C    3  py     Ryd( 5p)     0.00002       2.73262
    58    C    3  pz     Val( 2p)     1.11453      -0.10015
    59    C    3  pz     Ryd( 4p)     0.00451       0.99361
    60    C    3  pz     Ryd( 3p)     0.00021       0.39069
    61    C    3  pz     Ryd( 5p)     0.00009       2.95925
    62    C    3  dxy    Ryd( 3d)     0.00057       1.80080
    63    C    3  dxz    Ryd( 3d)     0.00070       2.37064
    64    C    3  dyz    Ryd( 3d)     0.00049       1.92205
    65    C    3  dx2y2  Ryd( 3d)     0.00045       2.18039
    66    C    3  dz2    Ryd( 3d)     0.00059       2.13529

    67    C    4  S      Cor( 1S)     1.99895     -10.06296
    68    C    4  S      Val( 2S)     0.94001      -0.18697
    69    C    4  S      Ryd( 3S)     0.00184       0.82672
    70    C    4  S      Ryd( 4S)     0.00017       1.13099
    71    C    4  S      Ryd( 5S)     0.00001      22.64661
    72    C    4  px     Val( 2p)     1.09816      -0.09151
    73    C    4  px     Ryd( 4p)     0.00639       0.85585
    74    C    4  px     Ryd( 3p)     0.00020       0.41050
    75    C    4  px     Ryd( 5p)     0.00014       3.09950
    76    C    4  py     Val( 2p)     1.01416      -0.13923
    77    C    4  py     Ryd( 4p)     0.00179       0.56215
    78    C    4  py     Ryd( 3p)     0.00033       0.29343
    79    C    4  py     Ryd( 5p)     0.00003       2.76323
    80    C    4  pz     Val( 2p)     1.13972      -0.11170
    81    C    4  pz     Ryd( 4p)     0.00524       0.89845
    82    C    4  pz     Ryd( 3p)     0.00020       0.42067
    83    C    4  pz     Ryd( 5p)     0.00005       3.01254
    84    C    4  dxy    Ryd( 3d)     0.00055       1.79684
    85    C    4  dxz    Ryd( 3d)     0.00076       2.32975
    86    C    4  dyz    Ryd( 3d)     0.00048       1.91055
    87    C    4  dx2y2  Ryd( 3d)     0.00052       2.17844
    88    C    4  dz2    Ryd( 3d)     0.00061       2.10295

    89    C    5  S      Cor( 1S)     1.99861     -10.12652
    90    C    5  S      Val( 2S)     0.95023      -0.25167
    91    C    5  S      Ryd( 4S)     0.00126       0.88405
    92    C    5  S      Ryd( 3S)     0.00015       0.51018
    93    C    5  S      Ryd( 5S)     0.00001      23.29259
    94    C    5  px     Val( 2p)     0.98382      -0.19994
    95    C    5  px     Ryd( 3p)     0.00718       0.95973
    96    C    5  px     Ryd( 4p)     0.00017       1.06910
    97    C    5  px     Ryd( 5p)     0.00027       2.92113
    98    C    5  py     Val( 2p)     1.06656      -0.16248
    99    C    5  py     Ryd( 4p)     0.00234       0.60923
   100    C    5  py     Ryd( 3p)     0.00032       0.49662
   101    C    5  py     Ryd( 5p)     0.00003       2.58734
   102    C    5  pz     Val( 2p)     1.08267      -0.11623
   103    C    5  pz     Ryd( 4p)     0.00610       0.70934
   104    C    5  pz     Ryd( 3p)     0.00029       0.56034
   105    C    5  pz     Ryd( 5p)     0.00007       3.03606
   106    C    5  dxy    Ryd( 3d)     0.00117       1.65426
   107    C    5  dxz    Ryd( 3d)     0.00111       2.26271
   108    C    5  dyz    Ryd( 3d)     0.00053       1.93335
   109    C    5  dx2y2  Ryd( 3d)     0.00135       1.87121
   110    C    5  dz2    Ryd( 3d)     0.00088       1.97756

   111    C    6  S      Cor( 1S)     1.99895     -10.06298
   112    C    6  S      Val( 2S)     0.93972      -0.18678
   113    C    6  S      Ryd( 3S)     0.00186       0.82522
   114    C    6  S      Ryd( 4S)     0.00017       1.01345
   115    C    6  S      Ryd( 5S)     0.00001      22.77319
   116    C    6  px     Val( 2p)     1.09454      -0.09214
   117    C    6  px     Ryd( 4p)     0.00632       0.84046
   118    C    6  px     Ryd( 3p)     0.00020       0.41069
   119    C    6  px     Ryd( 5p)     0.00014       3.10722
   120    C    6  py     Val( 2p)     1.02314      -0.13903
   121    C    6  py     Ryd( 4p)     0.00199       0.59041
   122    C    6  py     Ryd( 3p)     0.00037       0.29697
   123    C    6  py     Ryd( 5p)     0.00002       2.76418
   124    C    6  pz     Val( 2p)     1.13605      -0.11209
   125    C    6  pz     Ryd( 4p)     0.00519       0.89128
   126    C    6  pz     Ryd( 3p)     0.00021       0.40562
   127    C    6  pz     Ryd( 5p)     0.00006       3.02279
   128    C    6  dxy    Ryd( 3d)     0.00058       1.79918
   129    C    6  dxz    Ryd( 3d)     0.00073       2.34490
   130    C    6  dyz    Ryd( 3d)     0.00049       1.89301
   131    C    6  dx2y2  Ryd( 3d)     0.00050       2.16436
   132    C    6  dz2    Ryd( 3d)     0.00061       2.11894

   133    N    7  S      Cor( 1S)     1.99924     -14.19987
   134    N    7  S      Val( 2S)     1.20136      -0.54517
   135    N    7  S      Ryd( 4S)     0.00063       1.30701
   136    N    7  S      Ryd( 3S)     0.00011       1.03944
   137    N    7  S      Ryd( 5S)     0.00000      35.33312
   138    N    7  px     Val( 2p)     1.28606      -0.26523
   139    N    7  px     Ryd( 4p)     0.00292       0.90714
   140    N    7  px     Ryd( 3p)     0.00111       0.72180
   141    N    7  px     Ryd( 5p)     0.00005       4.00130
   142    N    7  py     Val( 2p)     1.37224      -0.27575
   143    N    7  py     Ryd( 4p)     0.00321       0.72425
   144    N    7  py     Ryd( 3p)     0.00095       0.49826
   145    N    7  py     Ryd( 5p)     0.00008       4.05025
   146    N    7  pz     Val( 2p)     1.72202      -0.29051
   147    N    7  pz     Ryd( 3p)     0.00960       0.51992
   148    N    7  pz     Ryd( 4p)     0.00085       0.52041
   149    N    7  pz     Ryd( 5p)     0.00001       3.85060
   150    N    7  dxy    Ryd( 3d)     0.00089       2.91423
   151    N    7  dxz    Ryd( 3d)     0.00041       2.33625
   152    N    7  dyz    Ryd( 3d)     0.00020       2.19806
   153    N    7  dx2y2  Ryd( 3d)     0.00068       2.88029
   154    N    7  dz2    Ryd( 3d)     0.00064       2.61384

   155    C    8  S      Cor( 1S)     1.99870     -10.11185
   156    C    8  S      Val( 2S)     0.82825      -0.15061
   157    C    8  S      Ryd( 3S)     0.00172       0.76720
   158    C    8  S      Ryd( 4S)     0.00010       2.76803
   159    C    8  S      Ryd( 5S)     0.00003      20.89298
   160    C    8  px     Val( 2p)     1.04636      -0.10434
   161    C    8  px     Ryd( 4p)     0.00395       0.99046
   162    C    8  px     Ryd( 3p)     0.00019       0.64734
   163    C    8  px     Ryd( 5p)     0.00020       3.21442
   164    C    8  py     Val( 2p)     0.97117      -0.08867
   165    C    8  py     Ryd( 4p)     0.00717       1.08445
   166    C    8  py     Ryd( 3p)     0.00013       0.57919
   167    C    8  py     Ryd( 5p)     0.00012       2.99560
   168    C    8  pz     Val( 2p)     0.93366      -0.14835
   169    C    8  pz     Ryd( 4p)     0.00135       0.59107
   170    C    8  pz     Ryd( 3p)     0.00079       0.36823
   171    C    8  pz     Ryd( 5p)     0.00003       2.71803
   172    C    8  dxy    Ryd( 3d)     0.00102       2.44609
   173    C    8  dxz    Ryd( 3d)     0.00226       1.66853
   174    C    8  dyz    Ryd( 3d)     0.00110       1.69871
   175    C    8  dx2y2  Ryd( 3d)     0.00081       2.63761
   176    C    8  dz2    Ryd( 3d)     0.00050       2.05115

   177    C    9  S      Cor( 1S)     1.99827     -10.09670
   178    C    9  S      Val( 2S)     0.96938      -0.23687
   179    C    9  S      Ryd( 3S)     0.00218       0.68273
   180    C    9  S      Ryd( 4S)     0.00101       0.74426
   181    C    9  S      Ryd( 5S)     0.00001      23.35757
   182    C    9  px     Val( 2p)     1.06544      -0.13455
   183    C    9  px     Ryd( 4p)     0.00585       0.91423
   184    C    9  px     Ryd( 3p)     0.00048       0.77812
   185    C    9  px     Ryd( 5p)     0.00025       3.02798
   186    C    9  py     Val( 2p)     1.03832      -0.17139
   187    C    9  py     Ryd( 4p)     0.00530       1.07618
   188    C    9  py     Ryd( 3p)     0.00026       0.97322
   189    C    9  py     Ryd( 5p)     0.00019       2.90775
   190    C    9  pz     Val( 2p)     1.23654      -0.16693
   191    C    9  pz     Ryd( 4p)     0.00148       0.63142
   192    C    9  pz     Ryd( 3p)     0.00075       0.36773
   193    C    9  pz     Ryd( 5p)     0.00002       2.61622
   194    C    9  dxy    Ryd( 3d)     0.00121       2.20494
   195    C    9  dxz    Ryd( 3d)     0.00100       1.63414
   196    C    9  dyz    Ryd( 3d)     0.00090       1.57199
   197    C    9  dx2y2  Ryd( 3d)     0.00128       2.46013
   198    C    9  dz2    Ryd( 3d)     0.00070       2.09425

   199    C   10  S      Cor( 1S)     1.99911     -10.13291
   200    C   10  S      Val( 2S)     1.00056      -0.26397
   201    C   10  S      Ryd( 4S)     0.00236       1.04143
   202    C   10  S      Ryd( 3S)     0.00007       0.82994
   203    C   10  S      Ryd( 5S)     0.00001      23.13636
   204    C   10  px     Val( 2p)     0.86534      -0.11738
   205    C   10  px     Ryd( 3p)     0.00313       0.68708
   206    C   10  px     Ryd( 4p)     0.00016       0.88178
   207    C   10  px     Ryd( 5p)     0.00010       2.43731
   208    C   10  py     Val( 2p)     0.95748      -0.12034
   209    C   10  py     Ryd( 3p)     0.00387       0.73616
   210    C   10  py     Ryd( 4p)     0.00017       0.95030
   211    C   10  py     Ryd( 5p)     0.00019       2.22220
   212    C   10  pz     Val( 2p)     1.19618      -0.13905
   213    C   10  pz     Ryd( 3p)     0.00082       0.71760
   214    C   10  pz     Ryd( 4p)     0.00022       0.96826
   215    C   10  pz     Ryd( 5p)     0.00007       2.37333
   216    C   10  dxy    Ryd( 3d)     0.00158       2.11617
   217    C   10  dxz    Ryd( 3d)     0.00198       2.11419
   218    C   10  dyz    Ryd( 3d)     0.00101       1.81999
   219    C   10  dx2y2  Ryd( 3d)     0.00189       2.16094
   220    C   10  dz2    Ryd( 3d)     0.00121       2.13143

   221    C   11  S      Cor( 1S)     1.99913     -10.17538
   222    C   11  S      Val( 2S)     0.74035      -0.10810
   223    C   11  S      Ryd( 4S)     0.00897       0.73733
   224    C   11  S      Ryd( 3S)     0.00179       0.67733
   225    C   11  S      Ryd( 5S)     0.00007      22.29537
   226    C   11  px     Val( 2p)     0.76392      -0.00736
   227    C   11  px     Ryd( 4p)     0.01584       1.25021
   228    C   11  px     Ryd( 3p)     0.00046       0.70709
   229    C   11  px     Ryd( 5p)     0.00017       2.38337
   230    C   11  py     Val( 2p)     0.88299      -0.05669
   231    C   11  py     Ryd( 4p)     0.00898       1.20805
[...]
   164. RY*(  16) C   5                  0.00001     0.56965   
   165. RY*(  17) C   5                  0.00000     2.61143   
   166. RY*(   1) C   6                  0.00633     0.95859   
   167. RY*(   2) C   6                  0.00284     0.97280   
   168. RY*(   3) C   6                  0.00120     0.86303   
   169. RY*(   4) C   6                  0.00073     0.95779   
   170. RY*(   5) C   6                  0.00047     1.24875   
   171. RY*(   6) C   6                  0.00019     2.04801   
   172. RY*(   7) C   6                  0.00015     0.80645   
   173. RY*(   8) C   6                  0.00013     2.60334   
   174. RY*(   9) C   6                  0.00010     2.66600   
   175. RY*(  10) C   6                  0.00005     1.20516   
   176. RY*(  11) C   6                  0.00003     4.21320   
   177. RY*(  12) C   6                  0.00003     1.47578   
   178. RY*(  13) C   6                  0.00001     2.36291   
   179. RY*(  14) C   6                  0.00000    19.27677   
   180. RY*(  15) C   6                  0.00000     1.33602   
   181. RY*(  16) C   6                  0.00001     1.66395   
   182. RY*(  17) C   6                  0.00000     2.55202   
   183. RY*(   1) N   7                  0.00670     0.77549   
   184. RY*(   2) N   7                  0.00414     0.81101   
   185. RY*(   3) N   7                  0.00206     0.61344   
   186. RY*(   4) N   7                  0.00099     0.81448   
   187. RY*(   5) N   7                  0.00078     1.38800   
   188. RY*(   6) N   7                  0.00048     1.60936   
   189. RY*(   7) N   7                  0.00036     1.51395   
   190. RY*(   8) N   7                  0.00022     1.17548   
   191. RY*(   9) N   7                  0.00011     2.26797   
   192. RY*(  10) N   7                  0.00005     1.51397   
   193. RY*(  11) N   7                  0.00005     2.78100   
   194. RY*(  12) N   7                  0.00002     2.48372   
   195. RY*(  13) N   7                  0.00003     3.78139   
   196. RY*(  14) N   7                  0.00000     3.57630   
   197. RY*(  15) N   7                  0.00001     2.26820   
   198. RY*(  16) N   7                  0.00000    35.22992   
   199. RY*(  17) N   7                  0.00000     3.82926   
   200. RY*(   1) C   8                  0.00630     1.13021   
   201. RY*(   2) C   8                  0.00378     1.22020   
   202. RY*(   3) C   8                  0.00297     1.36454   
   203. RY*(   4) C   8                  0.00122     0.89195   
   204. RY*(   5) C   8                  0.00080     1.05727   
   205. RY*(   6) C   8                  0.00043     1.84018   
   206. RY*(   7) C   8                  0.00032     1.47267   
   207. RY*(   8) C   8                  0.00023     1.25324   
   208. RY*(   9) C   8                  0.00024     2.54538   
   209. RY*(  10) C   8                  0.00017     3.00739   
   210. RY*(  11) C   8                  0.00010     2.81860   
   211. RY*(  12) C   8                  0.00008     1.58666   
   212. RY*(  13) C   8                  0.00006     3.10192   
   213. RY*(  14) C   8                  0.00004     3.21803   
   214. RY*(  15) C   8                  0.00001    17.07950   
   215. RY*(  16) C   8                  0.00001     2.77874   
   216. RY*(  17) C   8                  0.00001     1.38902   
   217. RY*(   1) C   9                  0.00662     0.80648   
   218. RY*(   2) C   9                  0.00382     1.12471   
   219. RY*(   3) C   9                  0.00199     1.01088   
   220. RY*(   4) C   9                  0.00094     1.15523   
   221. RY*(   5) C   9                  0.00066     1.60718   
   222. RY*(   6) C   9                  0.00055     1.07354   
   223. RY*(   7) C   9                  0.00039     1.31829   
   224. RY*(   8) C   9                  0.00031     1.79755   
   225. RY*(   9) C   9                  0.00017     2.82534   
   226. RY*(  10) C   9                  0.00012     0.76806   
   227. RY*(  11) C   9                  0.00005     1.45940   
   228. RY*(  12) C   9                  0.00005     1.90434   
   229. RY*(  13) C   9                  0.00002     1.55692   
   230. RY*(  14) C   9                  0.00002     4.65898   
   231. RY*(  15) C   9                  0.00000     2.68861   
   232. RY*(  16) C   9                  0.00001     2.59712   
   233. RY*(  17) C   9                  0.00000    19.41704   
   234. RY*(   1) C  10                  0.00436     0.98582   
   235. RY*(   2) C  10                  0.00199     0.81648   
   236. RY*(   3) C  10                  0.00195     1.72424   
   237. RY*(   4) C  10                  0.00079     1.45209   
   238. RY*(   5) C  10                  0.00057     1.09118   
   239. RY*(   6) C  10                  0.00048     1.64519   
   240. RY*(   7) C  10                  0.00030     0.88295   
   241. RY*(   8) C  10                  0.00017     1.36063   
   242. RY*(   9) C  10                  0.00013     2.56169   
   243. RY*(  10) C  10                  0.00006     1.93710   
   244. RY*(  11) C  10                  0.00007     0.95017   
   245. RY*(  12) C  10                  0.00005     1.73378   
   246. RY*(  13) C  10                  0.00003     2.10304   
   247. RY*(  14) C  10                  0.00003     1.12168   
   248. RY*(  15) C  10                  0.00000    22.20932   
   249. RY*(  16) C  10                  0.00000     3.11092   
   250. RY*(  17) C  10                  0.00001     1.53985   
   251. RY*(   1) C  11                  0.01518     1.12485   
   252. RY*(   2) C  11                  0.01169     1.59954   
   253. RY*(   3) C  11                  0.00693     1.59902   
   254. RY*(   4) C  11                  0.00382     1.74295   
   255. RY*(   5) C  11                  0.00232     1.67704   
   256. RY*(   6) C  11                  0.00163     1.35904   
   257. RY*(   7) C  11                  0.00073     1.61298   
   258. RY*(   8) C  11                  0.00039     0.71602   
   259. RY*(   9) C  11                  0.00016     2.67056   
   260. RY*(  10) C  11                  0.00009     2.62771   
   261. RY*(  11) C  11                  0.00003     2.24327   
   262. RY*(  12) C  11                  0.00002     1.98836   
   263. RY*(  13) C  11                  0.00000     0.51575   
   264. RY*(  14) C  11                  0.00001     0.75961   
   265. RY*(  15) C  11                  0.00001     1.31447   
   266. RY*(  16) C  11                  0.00001    20.06007   
   267. RY*(  17) C  11                  0.00001     2.63780   
   268. RY*(   1) O  12                  0.00378     0.46356   
   269. RY*(   2) O  12                  0.00214     0.91335   
   270. RY*(   3) O  12                  0.00146     1.01215   
   271. RY*(   4) O  12                  0.00070     1.15679   
   272. RY*(   5) O  12                  0.00053     1.18192   
   273. RY*(   6) O  12                  0.00019     1.36781   
   274. RY*(   7) O  12                  0.00014     2.85625   
   275. RY*(   8) O  12                  0.00006     1.60840   
   276. RY*(   9) O  12                  0.00005     1.60643   
   277. RY*(  10) O  12                  0.00004     3.62859   
   278. RY*(  11) O  12                  0.00001     2.07986   
   279. RY*(  12) O  12                  0.00001     4.61887   
   280. RY*(  13) O  12                  0.00001     4.57068   
   281. RY*(  14) O  12                  0.00001     2.92763   
   282. RY*(  15) O  12                  0.00000     4.88366   
   283. RY*(  16) O  12                  0.00000    49.24735   
   284. RY*(  17) O  12                  0.00001     3.12986   
   285. RY*(   1)Br  13                  0.00417     0.51393   
   286. RY*(   2)Br  13                  0.00177     0.54599   
   287. RY*(   3)Br  13                  0.00090     0.54780   
   288. RY*(   4)Br  13                  0.00035     0.57501   
   289. RY*(   5)Br  13                  0.00010     0.66719   
   290. RY*(   6)Br  13                  0.00007     0.91541   
   291. RY*(   7)Br  13                  0.00007     0.65313   
   292. RY*(   8)Br  13                  0.00006     1.58269   
   293. RY*(   9)Br  13                  0.00005     1.04880   
   294. RY*(  10)Br  13                  0.00003     0.68489   
   295. RY*(  11)Br  13                  0.00001     1.32682   
   296. RY*(  12)Br  13                  0.00001     2.81999   
   297. RY*(  13)Br  13                  0.00002     0.45274   
   298. RY*(  14)Br  13                  0.00000    10.91184   
   299. RY*(  15)Br  13                  0.00000   285.26914   
   300. RY*(  16)Br  13                  0.00000     2.19849   
   301. RY*(  17)Br  13                  0.00001     0.61903   
   302. RY*(  18)Br  13                  0.00000     2.43385   
   303. RY*(  19)Br  13                  0.00000    11.38820   
   304. RY*(  20)Br  13                  0.00000   285.36398   
   305. RY*(  21)Br  13                  0.00000    11.30868   
   306. RY*(  22)Br  13                  0.00000     4.25886   
   307. RY*(  23)Br  13                  0.00000   285.36210   
   308. RY*(  24)Br  13                  0.00000     4.09072   
   309. RY*(  25)Br  13                  0.00000    77.37013   
   310. RY*(  26)Br  13                  0.00000     4.04506   
   311. RY*(  27)Br  13                  0.00000   983.31904   
   312. RY*(  28)Br  13                  0.00000     4.23462   
   313. RY*(  29)Br  13                  0.00000    12.93125   
   314. RY*(  30)Br  13                  0.00000     4.03124   
   315. RY*(   1) O  14                  0.00270     0.83877   
   316. RY*(   2) O  14                  0.00113     0.63440   
   317. RY*(   3) O  14                  0.00091     1.11999   
   318. RY*(   4) O  14                  0.00015     1.44233   
   319. RY*(   5) O  14                  0.00009     4.82144   
   320. RY*(   6) O  14                  0.00006     1.58162   
   321. RY*(   7) O  14                  0.00003     1.48803   
   322. RY*(   8) O  14                  0.00003     1.40442   
   323. RY*(   9) O  14                  0.00001     4.20249   
   324. RY*(  10) O  14                  0.00000     3.05409   
   325. RY*(  11) O  14                  0.00000    49.35943   
   326. RY*(  12) O  14                  0.00000     4.93162   
   327. RY*(  13) O  14                  0.00001     3.25564   
   328. RY*(  14) O  14                  0.00000     3.11814   
   329. RY*(  15) O  14                  0.00000     2.28156   
   330. RY*(  16) O  14                  0.00001     1.93571   
   331. RY*(  17) O  14                  0.00000     2.96155   
   332. RY*(   1)Br  15                  0.00288     0.56246   
   333. RY*(   2)Br  15                  0.00142     0.57857   
   334. RY*(   3)Br  15                  0.00074     0.43499   
   335. RY*(   4)Br  15                  0.00017     0.94061   
   336. RY*(   5)Br  15                  0.00006     0.65867   
   337. RY*(   6)Br  15                  0.00006     0.65274   
   338. RY*(   7)Br  15                  0.00003     1.71588   
   339. RY*(   8)Br  15                  0.00004     0.59445   
   340. RY*(   9)Br  15                  0.00000    10.88323   
   341. RY*(  10)Br  15                  0.00000   285.22226   
   342. RY*(  11)Br  15                  0.00000    14.52852   
   343. RY*(  12)Br  15                  0.00001     0.64240   
   344. RY*(  13)Br  15                  0.00000     3.14898   
   345. RY*(  14)Br  15                  0.00000    10.63311   
   346. RY*(  15)Br  15                  0.00000   285.22792   
   347. RY*(  16)Br  15                  0.00000    85.75299   
   348. RY*(  17)Br  15                  0.00001     0.49182   
   349. RY*(  18)Br  15                  0.00000     3.11347   
   350. RY*(  19)Br  15                  0.00000    10.70637   
   351. RY*(  20)Br  15                  0.00000   285.22554   
   352. RY*(  21)Br  15                  0.00000   974.48272   
   353. RY*(  22)Br  15                  0.00000     4.16653   
   354. RY*(  23)Br  15                  0.00001     0.36153   
   355. RY*(  24)Br  15                  0.00000     4.13310   
   356. RY*(  25)Br  15                  0.00001     0.74367   
   357. RY*(  26)Br  15                  0.00000     4.08404   
   358. RY*(  27)Br  15                  0.00001     0.57069   
   359. RY*(  28)Br  15                  0.00000     4.18685   
   360. RY*(  29)Br  15                  0.00000     2.36411   
   361. RY*(  30)Br  15                  0.00000     4.13813   
   362. RY*(   1) H  16                  0.00179     0.51134   
   363. RY*(   2) H  16                  0.00028     2.22862   
   364. RY*(   3) H  16                  0.00023     1.56395   
   365. RY*(   4) H  16                  0.00012     1.65633   
   366. RY*(   5) H  16                  0.00006     0.79685   
   367. RY*(   6) H  16                  0.00004     2.57137   
   368. RY*(   1) H  17                  0.00085     0.80200   
   369. RY*(   2) H  17                  0.00022     1.75233   
   370. RY*(   3) H  17                  0.00019     1.87235   
   371. RY*(   4) H  17                  0.00011     1.83978   
   372. RY*(   5) H  17                  0.00006     0.77333   
   373. RY*(   6) H  17                  0.00004     2.16930   
   374. RY*(   1) H  18                  0.00075     0.77015   
   375. RY*(   2) H  18                  0.00023     2.17892   
   376. RY*(   3) H  18                  0.00018     1.57270   
   377. RY*(   4) H  18                  0.00016     1.80269   
   378. RY*(   5) H  18                  0.00006     0.39956   
   379. RY*(   6) H  18                  0.00003     2.39581   
   380. RY*(   1) H  19                  0.00075     0.76146   
   381. RY*(   2) H  19                  0.00022     2.18145   
   382. RY*(   3) H  19                  0.00017     1.70675   
   383. RY*(   4) H  19                  0.00018     1.59596   
   384. RY*(   5) H  19                  0.00007     0.51707   
   385. RY*(   6) H  19                  0.00004     2.37172   
   386. RY*(   1) H  20                  0.00192     0.73409   
   387. RY*(   2) H  20                  0.00064     1.65306   
   388. RY*(   3) H  20                  0.00044     1.61704   
   389. RY*(   4) H  20                  0.00020     1.97211   
   390. RY*(   5) H  20                  0.00009     0.95453   
   391. RY*(   6) H  20                  0.00005     2.47982   
   392. RY*(   1) H  21                  0.00128     0.57852   
   393. RY*(   2) H  21                  0.00032     1.80501   
   394. RY*(   3) H  21                  0.00014     2.17879   
   395. RY*(   4) H  21                  0.00010     1.97919   
   396. RY*(   5) H  21                  0.00011     1.17141   
   397. RY*(   6) H  21                  0.00008     1.63809   
   398. RY*(   1) H  22                  0.00105     0.68381   
   399. RY*(   2) H  22                  0.00030     1.69896   
   400. RY*(   3) H  22                  0.00015     2.04135   
   401. RY*(   4) H  22                  0.00012     2.33861   
   402. RY*(   5) H  22                  0.00008     0.52435   
   403. RY*(   6) H  22                  0.00008     2.04535   
   404. BD*(   1) C   1 - C   2          0.02503     0.52480   
   405. BD*(   2) C   1 - C   2          0.39626    -0.01235  416(v),411(v),422(r),83(g)
                                                    101(g),117(v),419(v)
   406. BD*(   1) C   1 - C   6          0.01585     0.54286   
   407. BD*(   1) C   1 - H  16          0.01362     0.40766   
   408. BD*(   1) C   2 - C   3          0.02278     0.52293   
   409. BD*(   1) C   2 - N   7          0.02866     0.37662   
   410. BD*(   1) C   3 - C   4          0.01545     0.54641   
   411. BD*(   2) C   3 - C   4          0.32101    -0.00547  405(v),416(v),136(g),118(g)
   412. BD*(   1) C   3 - H  17          0.01234     0.40069   
   413. BD*(   1) C   4 - C   5          0.02617     0.53776   
   414. BD*(   1) C   4 - H  18          0.01355     0.41053   
   415. BD*(   1) C   5 - C   6          0.02596     0.54009   
   416. BD*(   2) C   5 - C   6          0.38669    -0.01398  405(v),411(v),168(g),151(g)
                                                    134(v),332(v)
   417. BD*(   1) C   5 -Br  15          0.03368     0.07050   
   418. BD*(   1) C   6 - H  19          0.01358     0.40951   
   419. BD*(   1) N   7 - C   8          0.02865     0.44195   
   420. BD*(   1) N   7 - H  20          0.02309     0.34931   
   421. BD*(   1) C   8 - C   9          0.02396     0.58015   
   422. BD*(   2) C   8 - C   9          0.30588    -0.01117  431(v),405(r),219(g),428(v)
                                                    427(v),206(g)
   423. BD*(   1) C   8 - C  10          0.03126     0.34729   
   424. BD*(   1) C   9 - C  11          0.07883     0.42650   
   425. BD*(   1) C   9 -Br  13          0.03071     0.08170   
   426. BD*(   1) C  10 - O  12          0.01476     0.25289   
   427. BD*(   1) C  10 - H  21          0.02226     0.35284   
   428. BD*(   1) C  10 - H  22          0.02281     0.35319   
   429. BD*(   1) C  11 - O  12          0.12148     0.30568  426(g),423(v),252(g),421(v)
                                                    257(g),425(v)
   430. BD*(   1) C  11 - O  14          0.01286     0.63522   
   431. BD*(   2) C  11 - O  14          0.28291     0.00937  422(v),253(g),316(g),258(g)
                                                    328(g)
       -------------------------------
              Total Lewis  157.42730  ( 98.3921%)
        Valence non-Lewis    2.35006  (  1.4688%)
        Rydberg non-Lewis    0.22265  (  0.1392%)
       -------------------------------
            Total unit  1  160.00000  (100.0000%)
           Charge unit  1    0.00000
 Leave Link  607 at Fri Jul 05 12:15:22 2019, MaxMem=  209715200 cpu:       6.0
 (Enter C:\G09W\l9999.exe)
 1|1|UNPC-CCSC-2005544|FOpt|RB3LYP|6-311++G(d,p)|C10H7Br2N1O2|EDUARDO.M
 ELO|05-Jul-2019|0||#p opt b3lyp/6-311++g(d,p) pop=nbo geom=connectivit
 y||8h.log||0,1|C,-1.3242132768,0.4334613684,0.8554628535|C,-0.67501623
 88,-0.4099689144,-0.0517019321|C,-1.4452789274,-1.1936413727,-0.920447
 0796|C,-2.8333306466,-1.1285062381,-0.895773108|C,-3.4623557463,-0.261
 5639233,-0.0062887972|C,-2.7142105467,0.5184601855,0.8686053731|N,0.73
 01722404,-0.5457526893,-0.0969544068|C,1.6904209228,0.4103676329,0.015
 9941174|C,3.0236025254,0.2451416743,-0.1474823043|C,1.4556157076,1.875
 2936592,0.2971467562|C,3.7170058562,1.5272247803,-0.0302619576|O,2.744
 1398487,2.4845658255,0.2256034895|Br,3.897024684,-1.373050057,-0.55274
 25077|O,4.8766547612,1.8066067528,-0.1259964154|Br,-5.3724019609,-0.14
 91396522,0.0184121992|H,-0.7605314291,1.0038262774,1.5805609726|H,-0.9
 543414602,-1.8517031772,-1.6292892062|H,-3.4168168928,-1.7380622295,-1
 .5734083211|H,-3.2068880656,1.1751491019,1.5737954925|H,1.0742829411,-
 1.4384743174,-0.4287495811|H,0.7926566955,2.3347924723,-0.4419959809|H
 ,1.0514860085,2.0547808406,1.295651344||Version=IA32W-G09RevA.02|State
 =1-A|HF=-5738.9239939|RMSD=6.170e-009|RMSF=7.858e-006|Dipole=-2.045711
 4,-0.9965982,0.0117475|Quadrupole=-19.571748,7.7734171,11.7983309,-11.
 0451346,0.2270938,4.1911297|PG=C01 [X(C10H7Br2N1O2)]||@


 REALITY IS FOR PEOPLE WHO CAN'T FACE SCIENCE FICTION.
 Job cpu time:  0 days  2 hours 15 minutes 53.0 seconds.
 File lengths (MBytes):  RWF=    115 Int=      0 D2E=      0 Chk=     11 Scr=      1
 Normal termination of Gaussian 09 at Fri Jul 05 12:15:22 2019.
