 Entering Link 1 = C:\G09W\l1.exe PID=      3732.
  
 Copyright (c) 1988,1990,1992,1993,1995,1998,2003,2009,2013,
            Gaussian, Inc.  All Rights Reserved.
  
 This is part of the Gaussian(R) 09 program.  It is based on
 the Gaussian(R) 03 system (copyright 2003, Gaussian, Inc.),
 the Gaussian(R) 98 system (copyright 1998, Gaussian, Inc.),
 the Gaussian(R) 94 system (copyright 1995, Gaussian, Inc.),
 the Gaussian 92(TM) system (copyright 1992, Gaussian, Inc.),
 the Gaussian 90(TM) system (copyright 1990, Gaussian, Inc.),
 the Gaussian 88(TM) system (copyright 1988, Gaussian, Inc.),
 the Gaussian 86(TM) system (copyright 1986, Carnegie Mellon
 University), and the Gaussian 82(TM) system (copyright 1983,
 Carnegie Mellon University). Gaussian is a federally registered
 trademark of Gaussian, Inc.
  
 This software contains proprietary and confidential information,
 including trade secrets, belonging to Gaussian, Inc.
  
 This software is provided under written license and may be
 used, copied, transmitted, or stored only in accord with that
 written license.
  
 The following legend is applicable only to US Government
 contracts under FAR:
  
                    RESTRICTED RIGHTS LEGEND
  
 Use, reproduction and disclosure by the US Government is
 subject to restrictions as set forth in subparagraphs (a)
 and (c) of the Commercial Computer Software - Restricted
 Rights clause in FAR 52.227-19.
  
 Gaussian, Inc.
 340 Quinnipiac St., Bldg. 40, Wallingford CT 06492
  
  
 ---------------------------------------------------------------
 Warning -- This program may not be used in any manner that
 competes with the business of Gaussian, Inc. or will provide
 assistance to any competitor of Gaussian, Inc.  The licensee
 of this program is prohibited from giving any competitor of
 Gaussian, Inc. access to this program.  By using this program,
 the user acknowledges that Gaussian, Inc. is engaged in the
 business of creating and licensing software in the field of
 computational chemistry and represents and warrants to the
 licensee that it is not a competitor of Gaussian, Inc. and that
 it will not use this program in any manner prohibited above.
 ---------------------------------------------------------------
  

 Cite this work as:
 Gaussian 09, Revision D.01,
 M. J. Frisch, G. W. Trucks, H. B. Schlegel, G. E. Scuseria, 
 M. A. Robb, J. R. Cheeseman, G. Scalmani, V. Barone, B. Mennucci, 
 G. A. Petersson, H. Nakatsuji, M. Caricato, X. Li, H. P. Hratchian, 
 A. F. Izmaylov, J. Bloino, G. Zheng, J. L. Sonnenberg, M. Hada, 
 M. Ehara, K. Toyota, R. Fukuda, J. Hasegawa, M. Ishida, T. Nakajima, 
 Y. Honda, O. Kitao, H. Nakai, T. Vreven, J. A. Montgomery, Jr., 
 J. E. Peralta, F. Ogliaro, M. Bearpark, J. J. Heyd, E. Brothers, 
 K. N. Kudin, V. N. Staroverov, T. Keith, R. Kobayashi, J. Normand, 
 K. Raghavachari, A. Rendell, J. C. Burant, S. S. Iyengar, J. Tomasi, 
 M. Cossi, N. Rega, J. M. Millam, M. Klene, J. E. Knox, J. B. Cross, 
 V. Bakken, C. Adamo, J. Jaramillo, R. Gomperts, R. E. Stratmann, 
 O. Yazyev, A. J. Austin, R. Cammi, C. Pomelli, J. W. Ochterski, 
 R. L. Martin, K. Morokuma, V. G. Zakrzewski, G. A. Voth, 
 P. Salvador, J. J. Dannenberg, S. Dapprich, A. D. Daniels, 
 O. Farkas, J. B. Foresman, J. V. Ortiz, J. Cioslowski, 
 and D. J. Fox, Gaussian, Inc., Wallingford CT, 2013.
 
 ******************************************
 Gaussian 09:  IA32W-G09RevD.01 24-Apr-2013
                04-Jul-2019 
 ******************************************
 %nprocshared=4
 Will use up to    4 processors via shared memory.
 %mem=1600MB
 -------------------------------------------------------------
 #p opt b3lyp/6-311++g(d,p) pop=(nbo,chelpg) geom=connectivity
 -------------------------------------------------------------
 1/14=-1,18=20,19=15,26=3,38=1,57=2/1,3;
 2/9=110,12=2,17=6,18=5,40=1/2;
 3/5=4,6=6,7=1111,11=2,16=1,25=1,30=1,71=1,74=-5/1,2,3;
 4//1;
 5/5=2,38=5/2;
 6/7=2,8=2,9=2,10=2,15=8,20=3,28=1,40=1/1,2,7;
 7//1,2,3,16;
 1/14=-1,18=20,19=15,26=3/3(2);
 2/9=110/2;
 99//99;
 2/9=110/2;
 3/5=4,6=6,7=1111,11=2,16=1,25=1,30=1,71=1,74=-5/1,2,3;
 4/5=5,16=3,69=1/1;
 5/5=2,38=5/2;
 7//1,2,3,16;
 1/14=-1,18=20,19=15,26=3/3(-5);
 2/9=110/2;
 6/7=2,8=2,9=2,10=2,15=8,19=2,20=3,28=1,40=1/1,2,7;
 99/9=1/99;
 Leave Link    1 at Thu Jul 04 13:53:00 2019, MaxMem=   209715200 cpu:         1.0
 (Enter C:\G09W\l101.exe)
 ------
 8i.log
 ------
 Symbolic Z-matrix:
 Charge =  0 Multiplicity = 1
 C                     1.45799  -0.10095  -1.24922 
 C                     0.84556   0.69107  -0.2922 
 C                     1.54367   1.02377   0.86039 
 C                     2.83453   0.56554   1.04904 
 C                     3.45604  -0.24121   0.10066 
 C                     2.74786  -0.56578  -1.04883 
 N                    -0.47744   1.17936  -0.50154 
 C                    -1.60763   0.49446  -0.21206 
 C                    -2.8851    0.879    -0.28855 
 C                    -1.5702   -0.93187   0.27714 
 C                    -3.72686  -0.23624   0.13279 
 O                    -2.91561  -1.2761    0.45608 
 O                    -4.90491  -0.31669   0.2132 
 C                     4.85485  -0.76252   0.33029 
 H                     0.92642  -0.34433  -2.15194 
 H                     1.07272   1.64257   1.60379 
 H                     3.36349   0.83616   1.94653 
 H                     3.2077   -1.18076  -1.8026 
 H                    -0.58091   2.13631  -0.7514 
 H                    -3.28327   1.82385  -0.59563 
 H                    -1.11282  -1.59748  -0.44483 
 H                    -1.03642  -1.02164   1.21604 
 H                     4.84218  -1.62105   0.99608 
 H                     5.31696  -1.07259  -0.59951 
 H                     5.48588  -0.00577   0.78337 
 
 NAtoms=     25 NQM=       25 NQMF=       0 NMMI=      0 NMMIF=      0
                NMic=       0 NMicF=      0.
                    Isotopes and Nuclear Properties:
 (Nuclear quadrupole moments (NQMom) in fm**2, nuclear magnetic moments (NMagM)
  in nuclear magnetons)

  Atom         1           2           3           4           5           6           7           8           9          10
 IAtWgt=          12          12          12          12          12          12          14          12          12          12
 AtmWgt=  12.0000000  12.0000000  12.0000000  12.0000000  12.0000000  12.0000000  14.0030740  12.0000000  12.0000000  12.0000000
 NucSpn=           0           0           0           0           0           0           2           0           0           0
 AtZEff=   0.0000000   0.0000000   0.0000000   0.0000000   0.0000000   0.0000000   0.0000000   0.0000000   0.0000000   0.0000000
 NQMom=    0.0000000   0.0000000   0.0000000   0.0000000   0.0000000   0.0000000   2.0440000   0.0000000   0.0000000   0.0000000
 NMagM=    0.0000000   0.0000000   0.0000000   0.0000000   0.0000000   0.0000000   0.4037610   0.0000000   0.0000000   0.0000000
 AtZNuc=   6.0000000   6.0000000   6.0000000   6.0000000   6.0000000   6.0000000   7.0000000   6.0000000   6.0000000   6.0000000

  Atom        11          12          13          14          15          16          17          18          19          20
 IAtWgt=          12          16          16          12           1           1           1           1           1           1
 AtmWgt=  12.0000000  15.9949146  15.9949146  12.0000000   1.0078250   1.0078250   1.0078250   1.0078250   1.0078250   1.0078250
 NucSpn=           0           0           0           0           1           1           1           1           1           1
 AtZEff=   0.0000000   0.0000000   0.0000000   0.0000000   0.0000000   0.0000000   0.0000000   0.0000000   0.0000000   0.0000000
 NQMom=    0.0000000   0.0000000   0.0000000   0.0000000   0.0000000   0.0000000   0.0000000   0.0000000   0.0000000   0.0000000
 NMagM=    0.0000000   0.0000000   0.0000000   0.0000000   2.7928460   2.7928460   2.7928460   2.7928460   2.7928460   2.7928460
 AtZNuc=   6.0000000   8.0000000   8.0000000   6.0000000   1.0000000   1.0000000   1.0000000   1.0000000   1.0000000   1.0000000

  Atom        21          22          23          24          25
 IAtWgt=           1           1           1           1           1
 AtmWgt=   1.0078250   1.0078250   1.0078250   1.0078250   1.0078250
 NucSpn=           1           1           1           1           1
 AtZEff=   0.0000000   0.0000000   0.0000000   0.0000000   0.0000000
 NQMom=    0.0000000   0.0000000   0.0000000   0.0000000   0.0000000
 NMagM=    2.7928460   2.7928460   2.7928460   2.7928460   2.7928460
 AtZNuc=   1.0000000   1.0000000   1.0000000   1.0000000   1.0000000
 Leave Link  101 at Thu Jul 04 13:53:00 2019, MaxMem=   209715200 cpu:         0.0
 (Enter C:\G09W\l103.exe)

 GradGradGradGradGradGradGradGradGradGradGradGradGradGradGradGradGradGrad
 Berny optimization.
 Initialization pass.
                           ----------------------------
                           !    Initial Parameters    !
                           ! (Angstroms and Degrees)  !
 --------------------------                            --------------------------
 ! Name  Definition              Value          Derivative Info.                !
 --------------------------------------------------------------------------------
 ! R1    R(1,2)                  1.385          estimate D2E/DX2                !
 ! R2    R(1,6)                  1.3856         estimate D2E/DX2                !
 ! R3    R(1,15)                 1.0755         estimate D2E/DX2                !
 ! R4    R(2,3)                  1.388          estimate D2E/DX2                !
 ! R5    R(2,7)                  1.4257         estimate D2E/DX2                !
 ! R6    R(3,4)                  1.3827         estimate D2E/DX2                !
 ! R7    R(3,16)                 1.0758         estimate D2E/DX2                !
 ! R8    R(4,5)                  1.3916         estimate D2E/DX2                !
 ! R9    R(4,17)                 1.0764         estimate D2E/DX2                !
 ! R10   R(5,6)                  1.3886         estimate D2E/DX2                !
 ! R11   R(5,14)                 1.5103         estimate D2E/DX2                !
 ! R12   R(6,18)                 1.076          estimate D2E/DX2                !
 ! R13   R(7,8)                  1.3529         estimate D2E/DX2                !
 ! R14   R(7,19)                 0.9944         estimate D2E/DX2                !
 ! R15   R(8,9)                  1.3363         estimate D2E/DX2                !
 ! R16   R(8,10)                 1.5083         estimate D2E/DX2                !
 ! R17   R(9,11)                 1.4594         estimate D2E/DX2                !
 ! R18   R(9,20)                 1.0703         estimate D2E/DX2                !
 ! R19   R(10,12)                1.4002         estimate D2E/DX2                !
 ! R20   R(10,21)                1.0833         estimate D2E/DX2                !
 ! R21   R(10,22)                1.0838         estimate D2E/DX2                !
 ! R22   R(11,12)                1.3579         estimate D2E/DX2                !
 ! R23   R(11,13)                1.1835         estimate D2E/DX2                !
 ! R24   R(14,23)                1.0865         estimate D2E/DX2                !
 ! R25   R(14,24)                1.0836         estimate D2E/DX2                !
 ! R26   R(14,25)                1.0845         estimate D2E/DX2                !
 ! A1    A(2,1,6)              120.2342         estimate D2E/DX2                !
 ! A2    A(2,1,15)             119.395          estimate D2E/DX2                !
 ! A3    A(6,1,15)             120.3688         estimate D2E/DX2                !
 ! A4    A(1,2,3)              119.2394         estimate D2E/DX2                !
 ! A5    A(1,2,7)              120.314          estimate D2E/DX2                !
 ! A6    A(3,2,7)              120.4358         estimate D2E/DX2                !
 ! A7    A(2,3,4)              120.2262         estimate D2E/DX2                !
 ! A8    A(2,3,16)             119.4402         estimate D2E/DX2                !
 ! A9    A(4,3,16)             120.3334         estimate D2E/DX2                !
 ! A10   A(3,4,5)              121.0706         estimate D2E/DX2                !
 ! A11   A(3,4,17)             119.2904         estimate D2E/DX2                !
 ! A12   A(5,4,17)             119.6387         estimate D2E/DX2                !
 ! A13   A(4,5,6)              118.1565         estimate D2E/DX2                !
 ! A14   A(4,5,14)             120.6717         estimate D2E/DX2                !
 ! A15   A(6,5,14)             121.166          estimate D2E/DX2                !
 ! A16   A(1,6,5)              121.0681         estimate D2E/DX2                !
 ! A17   A(1,6,18)             119.2249         estimate D2E/DX2                !
 ! A18   A(5,6,18)             119.7048         estimate D2E/DX2                !
 ! A19   A(2,7,8)              124.7798         estimate D2E/DX2                !
 ! A20   A(2,7,19)             117.5831         estimate D2E/DX2                !
 ! A21   A(8,7,19)             117.0025         estimate D2E/DX2                !
 ! A22   A(7,8,9)              129.8446         estimate D2E/DX2                !
 ! A23   A(7,8,10)             121.8299         estimate D2E/DX2                !
 ! A24   A(9,8,10)             108.3251         estimate D2E/DX2                !
 ! A25   A(8,9,11)             108.359          estimate D2E/DX2                !
 ! A26   A(8,9,20)             128.7626         estimate D2E/DX2                !
 ! A27   A(11,9,20)            122.8783         estimate D2E/DX2                !
 ! A28   A(8,10,12)            104.4816         estimate D2E/DX2                !
 ! A29   A(8,10,21)            112.0466         estimate D2E/DX2                !
 ! A30   A(8,10,22)            111.8103         estimate D2E/DX2                !
 ! A31   A(12,10,21)           109.865          estimate D2E/DX2                !
 ! A32   A(12,10,22)           110.0087         estimate D2E/DX2                !
 ! A33   A(21,10,22)           108.5749         estimate D2E/DX2                !
 ! A34   A(9,11,12)            108.0192         estimate D2E/DX2                !
 ! A35   A(9,11,13)            130.2165         estimate D2E/DX2                !
 ! A36   A(12,11,13)           121.7643         estimate D2E/DX2                !
 ! A37   A(10,12,11)           110.8149         estimate D2E/DX2                !
 ! A38   A(5,14,23)            110.7993         estimate D2E/DX2                !
 ! A39   A(5,14,24)            111.3008         estimate D2E/DX2                !
 ! A40   A(5,14,25)            111.1966         estimate D2E/DX2                !
 ! A41   A(23,14,24)           107.7376         estimate D2E/DX2                !
 ! A42   A(23,14,25)           107.5865         estimate D2E/DX2                !
 ! A43   A(24,14,25)           108.0601         estimate D2E/DX2                !
 ! D1    D(6,1,2,3)              0.6706         estimate D2E/DX2                !
 ! D2    D(6,1,2,7)            179.4819         estimate D2E/DX2                !
 ! D3    D(15,1,2,3)          -178.8094         estimate D2E/DX2                !
 ! D4    D(15,1,2,7)             0.0018         estimate D2E/DX2                !
 ! D5    D(2,1,6,5)             -0.6048         estimate D2E/DX2                !
 ! D6    D(2,1,6,18)           179.9405         estimate D2E/DX2                !
 ! D7    D(15,1,6,5)           178.8701         estimate D2E/DX2                !
 ! D8    D(15,1,6,18)           -0.5846         estimate D2E/DX2                !
 ! D9    D(1,2,3,4)             -0.1424         estimate D2E/DX2                !
 ! D10   D(1,2,3,16)           179.7176         estimate D2E/DX2                !
 ! D11   D(7,2,3,4)           -178.9522         estimate D2E/DX2                !
 ! D12   D(7,2,3,16)             0.9078         estimate D2E/DX2                !
 ! D13   D(1,2,7,8)             85.1325         estimate D2E/DX2                !
 ! D14   D(1,2,7,19)          -104.2988         estimate D2E/DX2                !
 ! D15   D(3,2,7,8)            -96.0706         estimate D2E/DX2                !
 ! D16   D(3,2,7,19)            74.4981         estimate D2E/DX2                !
 ! D17   D(2,3,4,5)             -0.4667         estimate D2E/DX2                !
 ! D18   D(2,3,4,17)           179.7414         estimate D2E/DX2                !
 ! D19   D(16,3,4,5)           179.6745         estimate D2E/DX2                !
 ! D20   D(16,3,4,17)           -0.1174         estimate D2E/DX2                !
 ! D21   D(3,4,5,6)              0.5329         estimate D2E/DX2                !
 ! D22   D(3,4,5,14)          -178.6011         estimate D2E/DX2                !
 ! D23   D(17,4,5,6)          -179.6759         estimate D2E/DX2                !
 ! D24   D(17,4,5,14)            1.1901         estimate D2E/DX2                !
 ! D25   D(4,5,6,1)              0.0014         estimate D2E/DX2                !
 ! D26   D(4,5,6,18)           179.4536         estimate D2E/DX2                !
 ! D27   D(14,5,6,1)           179.1309         estimate D2E/DX2                !
 ! D28   D(14,5,6,18)           -1.4169         estimate D2E/DX2                !
 ! D29   D(4,5,14,23)           79.5476         estimate D2E/DX2                !
 ! D30   D(4,5,14,24)         -160.5915         estimate D2E/DX2                !
 ! D31   D(4,5,14,25)          -40.0543         estimate D2E/DX2                !
 ! D32   D(6,5,14,23)          -99.5601         estimate D2E/DX2                !
 ! D33   D(6,5,14,24)           20.3008         estimate D2E/DX2                !
 ! D34   D(6,5,14,25)          140.838          estimate D2E/DX2                !
 ! D35   D(2,7,8,9)            175.4364         estimate D2E/DX2                !
 ! D36   D(2,7,8,10)            -4.8183         estimate D2E/DX2                !
 ! D37   D(19,7,8,9)             4.8181         estimate D2E/DX2                !
 ! D38   D(19,7,8,10)         -175.4366         estimate D2E/DX2                !
 ! D39   D(7,8,9,11)           179.8015         estimate D2E/DX2                !
 ! D40   D(7,8,9,20)            -0.2707         estimate D2E/DX2                !
 ! D41   D(10,8,9,11)            0.0295         estimate D2E/DX2                !
 ! D42   D(10,8,9,20)          179.9573         estimate D2E/DX2                !
 ! D43   D(7,8,10,12)         -179.8606         estimate D2E/DX2                !
 ! D44   D(7,8,10,21)          -60.9635         estimate D2E/DX2                !
 ! D45   D(7,8,10,22)           61.1929         estimate D2E/DX2                !
 ! D46   D(9,8,10,12)           -0.0666         estimate D2E/DX2                !
 ! D47   D(9,8,10,21)          118.8304         estimate D2E/DX2                !
 ! D48   D(9,8,10,22)         -119.0131         estimate D2E/DX2                !
 ! D49   D(8,9,11,12)            0.0199         estimate D2E/DX2                !
 ! D50   D(8,9,11,13)          179.9412         estimate D2E/DX2                !
 ! D51   D(20,9,11,12)        -179.9131         estimate D2E/DX2                !
 ! D52   D(20,9,11,13)           0.0082         estimate D2E/DX2                !
 ! D53   D(8,10,12,11)           0.0801         estimate D2E/DX2                !
 ! D54   D(21,10,12,11)       -120.2859         estimate D2E/DX2                !
 ! D55   D(22,10,12,11)        120.2407         estimate D2E/DX2                !
 ! D56   D(9,11,12,10)          -0.0652         estimate D2E/DX2                !
 ! D57   D(13,11,12,10)       -179.9945         estimate D2E/DX2                !
 --------------------------------------------------------------------------------
 Trust Radius=3.00D-01 FncErr=1.00D-07 GrdErr=1.00D-06
 Number of steps in this run=    136 maximum allowed number of steps=    150.
 GradGradGradGradGradGradGradGradGradGradGradGradGradGradGradGradGradGrad

 Leave Link  103 at Thu Jul 04 13:53:00 2019, MaxMem=   209715200 cpu:         0.0
 (Enter C:\G09W\l202.exe)
                          Input orientation:                          
 ---------------------------------------------------------------------
 Center     Atomic      Atomic             Coordinates (Angstroms)
 Number     Number       Type             X           Y           Z
 ---------------------------------------------------------------------
      1          6           0        1.457991   -0.100950   -1.249215
      2          6           0        0.845559    0.691065   -0.292200
      3          6           0        1.543674    1.023768    0.860390
      4          6           0        2.834528    0.565536    1.049039
      5          6           0        3.456043   -0.241212    0.100658
      6          6           0        2.747859   -0.565775   -1.048834
      7          7           0       -0.477444    1.179361   -0.501536
      8          6           0       -1.607630    0.494456   -0.212061
      9          6           0       -2.885101    0.878995   -0.288546
     10          6           0       -1.570195   -0.931867    0.277137
     11          6           0       -3.726859   -0.236241    0.132788
     12          8           0       -2.915609   -1.276098    0.456079
     13          8           0       -4.904905   -0.316694    0.213195
     14          6           0        4.854850   -0.762515    0.330287
     15          1           0        0.926415   -0.344332   -2.151939
     16          1           0        1.072723    1.642566    1.603788
     17          1           0        3.363494    0.836162    1.946530
     18          1           0        3.207695   -1.180756   -1.802599
     19          1           0       -0.580909    2.136306   -0.751396
     20          1           0       -3.283274    1.823847   -0.595629
     21          1           0       -1.112816   -1.597484   -0.444832
     22          1           0       -1.036422   -1.021640    1.216044
     23          1           0        4.842180   -1.621054    0.996075
     24          1           0        5.316955   -1.072589   -0.599514
     25          1           0        5.485883   -0.005773    0.783374
 ---------------------------------------------------------------------
                    Distance matrix (angstroms):
                    1          2          3          4          5
     1  C    0.000000
     2  C    1.385005   0.000000
     3  C    2.392230   1.387991   0.000000
     4  C    2.760621   2.402223   1.382704   0.000000
     5  C    2.415376   2.799662   2.415476   1.391600   0.000000
     6  C    1.385631   2.402267   2.760769   2.385047   1.388596
     7  N    2.438058   1.425690   2.442124   3.708129   4.225279
     8  C    3.290627   2.462359   3.370614   4.618246   5.126381
     9  C    4.554737   3.735392   4.577670   5.882308   6.451081
    10  C    3.491430   2.965454   3.723019   4.715892   5.076536
    11  C    5.367579   4.684818   5.467682   6.673392   7.182976
    12  O    4.839150   4.309993   5.033692   6.066901   6.464926
    13  O    6.532353   5.859935   6.618147   7.834270   8.362046
    14  C    3.804096   4.309849   3.799435   2.522305   1.510347
    15  H    1.075508   2.130074   3.365536   3.836016   3.388782
    16  H    3.365695   2.133478   1.075800   2.138153   3.389430
    17  H    3.836914   3.372382   2.127590   1.076352   2.139286
    18  H    2.129244   3.371158   3.836718   3.364614   2.137009
    19  H    3.067613   2.081921   2.889541   4.168224   4.761887
    20  H    5.158644   4.292147   5.104855   6.458775   7.082915
    21  H    3.081509   3.015955   3.953670   4.742555   4.797031
    22  H    3.625916   2.958042   3.311658   4.187036   4.694187
    23  H    4.336448   4.793592   4.230087   2.968947   2.151072
    24  H    4.032096   4.816461   4.556718   3.400533   2.155092
    25  H    4.512692   4.814047   4.075156   2.725189   2.154480
                    6          7          8          9         10
     6  C    0.000000
     7  N    3.707778   0.000000
     8  C    4.560106   1.352853   0.000000
     9  C    5.864779   2.435651   1.336283   0.000000
    10  C    4.531866   2.501544   1.508348   2.308289   0.000000
    11  C    6.589901   3.600694   2.268032   1.459394   2.270668
    12  O    5.902897   3.590397   2.300452   2.280312   1.400234
    13  O    7.760126   4.727730   3.422109   2.400213   3.391580
    14  C    2.525884   5.735518   6.605889   7.936268   6.427496
    15  H    2.140919   2.648828   3.299708   4.415475   3.532516
    16  H    3.836568   2.655177   3.435077   4.452902   3.920807
    17  H    3.364021   4.567671   5.430318   6.636440   5.500372
    18  H    1.076017   4.565432   5.340740   6.607351   5.216846
    19  H    4.297721   0.994424   2.010152   2.665401   3.383822
    20  H    6.503096   2.880434   2.173060   1.070321   3.360107
    21  H    4.041541   2.849172   2.162229   3.049322   1.083273
    22  H    4.433765   2.847269   2.159701   3.048576   1.083752
    23  H    3.111502   6.195447   6.894565   8.222613   6.489253
    24  H    2.656878   6.217390   7.110248   8.436771   6.944145
    25  H    3.341761   6.214242   7.180463   8.485588   7.134575
                   11         12         13         14         15
    11  C    0.000000
    12  O    1.357920   0.000000
    13  O    1.183525   2.221879   0.000000
    14  C    8.600099   7.788429   9.770634   0.000000
    15  H    5.185038   4.736148   6.292767   4.665718   0.000000
    16  H    5.360013   5.073719   6.442397   4.659475   4.251430
    17  H    7.396811   6.790451   8.526427   2.718851   4.912267
    18  H    7.261258   6.527294   8.403827   2.727132   2.454767
    19  H    4.038287   4.307357   5.064048   6.254652   3.222904
    20  H    2.229646   3.294074   2.804603   8.589275   4.984434
    21  H    3.003306   2.040831   4.056274   6.075444   2.939909
    22  H    3.004787   2.042949   4.058056   5.963120   3.956613
    23  H    8.723039   7.784207   9.865086   1.086519   5.183939
    24  H    9.111878   8.302458  10.281940   1.083613   4.713515
    25  H    9.238560   8.503289  10.411064   1.084504   5.433179
                   16         17         18         19         20
    16  H    0.000000
    17  H    2.452629   0.000000
    18  H    4.912507   4.260070   0.000000
    19  H    2.919789   4.952524   5.144069   0.000000
    20  H    4.883135   7.184540   7.253764   2.724825   0.000000
    21  H    4.412635   5.628374   4.547968   3.783926   4.054520
    22  H    3.420063   4.831594   5.210571   3.748458   4.053060
    23  H    5.022881   3.021223   3.270777   6.825050   8.967936
    24  H    5.499101   3.733856   2.430657   6.716016   9.074872
    25  H    4.781849   2.562483   3.641151   6.614377   9.063513
                   21         22         23         24         25
    21  H    0.000000
    22  H    1.759529   0.000000
    23  H    6.126887   5.913176   0.000000
    24  H    6.453015   6.607893   1.752749   0.000000
    25  H    6.898178   6.615108   1.751779   1.754711   0.000000
 Stoichiometry    C11H11NO2
 Framework group  C1[X(C11H11NO2)]
 Deg. of freedom    69
 Full point group                 C1      NOp   1
 Largest Abelian subgroup         C1      NOp   1
 Largest concise Abelian subgroup C1      NOp   1
                         Standard orientation:                         
 ---------------------------------------------------------------------
 Center     Atomic      Atomic             Coordinates (Angstroms)
 Number     Number       Type             X           Y           Z
 ---------------------------------------------------------------------
      1          6           0       -1.457991   -0.100950    1.249215
      2          6           0       -0.845559    0.691065    0.292200
      3          6           0       -1.543674    1.023768   -0.860390
      4          6           0       -2.834528    0.565536   -1.049039
      5          6           0       -3.456043   -0.241212   -0.100658
      6          6           0       -2.747859   -0.565775    1.048834
      7          7           0        0.477444    1.179361    0.501536
      8          6           0        1.607630    0.494456    0.212061
      9          6           0        2.885101    0.878995    0.288546
     10          6           0        1.570195   -0.931867   -0.277137
     11          6           0        3.726859   -0.236241   -0.132788
     12          8           0        2.915609   -1.276098   -0.456079
     13          8           0        4.904905   -0.316694   -0.213195
     14          6           0       -4.854850   -0.762515   -0.330287
     15          1           0       -0.926415   -0.344332    2.151939
     16          1           0       -1.072723    1.642566   -1.603788
     17          1           0       -3.363494    0.836162   -1.946530
     18          1           0       -3.207695   -1.180756    1.802599
     19          1           0        0.580909    2.136306    0.751396
     20          1           0        3.283274    1.823847    0.595629
     21          1           0        1.112816   -1.597484    0.444832
     22          1           0        1.036422   -1.021640   -1.216044
     23          1           0       -4.842180   -1.621054   -0.996075
     24          1           0       -5.316955   -1.072589    0.599514
     25          1           0       -5.485883   -0.005773   -0.783374
 ---------------------------------------------------------------------
 Rotational constants (GHZ):      2.4069287      0.2920034      0.2855491
 Leave Link  202 at Thu Jul 04 13:53:00 2019, MaxMem=   209715200 cpu:         0.0
 (Enter C:\G09W\l301.exe)
 Standard basis: 6-311++G(d,p) (5D, 7F)
 Ernie: Thresh=  0.10000D-02 Tol=  0.10000D-05 Strict=F.
 There are   399 symmetry adapted cartesian basis functions of A   symmetry.
 There are   385 symmetry adapted basis functions of A   symmetry.
   385 basis functions,   603 primitive gaussians,   399 cartesian basis functions
    50 alpha electrons       50 beta electrons
       nuclear repulsion energy       823.3556627959 Hartrees.
 IExCor=  402 DFT=T Ex+Corr=B3LYP ExCW=0 ScaHFX=  0.200000
 ScaDFX=  0.800000  0.720000  1.000000  0.810000 ScalE2=  1.000000  1.000000
 IRadAn=      0 IRanWt=     -1 IRanGd=            0 ICorTp=0 IEmpDi=  4
 NAtoms=   25 NActive=   25 NUniq=   25 SFac= 1.00D+00 NAtFMM=   60 NAOKFM=F Big=F
 Integral buffers will be    262144 words long.
 Raffenetti 2 integral format.
 Two-electron integral symmetry is turned on.
 Leave Link  301 at Thu Jul 04 13:53:00 2019, MaxMem=   209715200 cpu:         0.0
 (Enter C:\G09W\l302.exe)
 NPDir=0 NMtPBC=     1 NCelOv=     1 NCel=       1 NClECP=     1 NCelD=      1
         NCelK=      1 NCelE2=     1 NClLst=     1 CellRange=     0.0.
 One-electron integrals computed using PRISM.
 NBasis=   385 RedAO= T EigKep=  1.81D-06  NBF=   385
 NBsUse=   384 1.00D-06 EigRej=  5.92D-07 NBFU=   384
 Precomputing XC quadrature grid using
 IXCGrd= 4 IRadAn=           0 IRanWt=          -1 IRanGd=           0 AccXCQ= 0.00D+00.
 Generated NRdTot=       0 NPtTot=           0 NUsed=           0 NTot=          16
 NSgBfM=   397   397   397   397   397 MxSgAt=    25 MxSgA2=    25.
 Leave Link  302 at Thu Jul 04 13:53:01 2019, MaxMem=   209715200 cpu:         1.0
 (Enter C:\G09W\l303.exe)
 DipDrv:  MaxL=1.
 Leave Link  303 at Thu Jul 04 13:53:01 2019, MaxMem=   209715200 cpu:         0.0
 (Enter C:\G09W\l401.exe)
 ExpMin= 3.60D-02 ExpMax= 8.59D+03 ExpMxC= 1.30D+03 IAcc=3 IRadAn=         5 AccDes= 0.00D+00
 Harris functional with IExCor=  402 and IRadAn=       5 diagonalized for initial guess.
 HarFok:  IExCor=  402 AccDes= 0.00D+00 IRadAn=         5 IDoV= 1 UseB2=F ITyADJ=14
 ICtDFT=  3500011 ScaDFX=  1.000000  1.000000  1.000000  1.000000
 FoFCou: FMM=F IPFlag=           0 FMFlag=      100000 FMFlg1=           0
         NFxFlg=           0 DoJE=T BraDBF=F KetDBF=T FulRan=T
         wScrn=  0.000000 ICntrl=     500 IOpCl=  0 I1Cent=   200000004 NGrid=           0
         NMat0=    1 NMatS0=      1 NMatT0=    0 NMatD0=    1 NMtDS0=    0 NMtDT0=    0
 Petite list used in FoFCou.
 Harris En= -631.227885820400    
 JPrj=0 DoOrth=F DoCkMO=F.
 Leave Link  401 at Thu Jul 04 13:53:13 2019, MaxMem=   209715200 cpu:        12.0
 (Enter C:\G09W\l502.exe)
 Closed shell SCF:
 Using DIIS extrapolation, IDIIS=  1040.
 Integral symmetry usage will be decided dynamically.
 IVT=      500918 IEndB=      500918 NGot=   209715200 MDV=   209390523
 LenX=   209390523 LenY=   209230881
 Requested convergence on RMS density matrix=1.00D-08 within 128 cycles.
 Requested convergence on MAX density matrix=1.00D-06.
 Requested convergence on             energy=1.00D-06.
 No special actions if energy rises.
 Fock matrices will be formed incrementally for  20 cycles.

 Cycle   1  Pass 1  IDiag  1:
 FoFJK:  IHMeth= 1 ICntrl=       0 DoSepK=F KAlg= 0 I1Cent=   0 FoldK=F
 IRaf= 860000000 NMat=   1 IRICut=       1 DoRegI=T DoRafI=F ISym2E= 0.
 FoFCou: FMM=F IPFlag=           0 FMFlag=      100000 FMFlg1=           0
         NFxFlg=           0 DoJE=F BraDBF=F KetDBF=F FulRan=T
         wScrn=  0.000000 ICntrl=       0 IOpCl=  0 I1Cent=           0 NGrid=           0
         NMat0=    1 NMatS0=      1 NMatT0=    0 NMatD0=    1 NMtDS0=    0 NMtDT0=    0
 Symmetry not used in FoFCou.
 E= -630.782440880287    
 DIIS: error= 3.42D-02 at cycle   1 NSaved=   1.
 NSaved= 1 IEnMin= 1 EnMin= -630.782440880287     IErMin= 1 ErrMin= 3.42D-02
 ErrMax= 3.42D-02  0.00D+00 EMaxC= 1.00D-01 BMatC= 4.52D-01 BMatP= 4.52D-01
 IDIUse=3 WtCom= 6.58D-01 WtEn= 3.42D-01
 Coeff-Com:  0.100D+01
 Coeff-En:   0.100D+01
 Coeff:      0.100D+01
 Gap=     0.233 Goal=   None    Shift=    0.000
 GapD=    0.233 DampG=1.000 DampE=0.500 DampFc=0.5000 IDamp=-1.
 Damping current iteration by 5.00D-01
 RMSDP=1.89D-02 MaxDP=2.11D+00              OVMax= 3.64D-01

 Cycle   2  Pass 1  IDiag  1:
 RMSU=  7.89D-03    CP:  8.79D-01
 E= -630.911519466409     Delta-E=       -0.129078586123 Rises=F Damp=T
 DIIS: error= 1.37D-02 at cycle   2 NSaved=   2.
 NSaved= 2 IEnMin= 2 EnMin= -630.911519466409     IErMin= 2 ErrMin= 1.37D-02
 ErrMax= 1.37D-02  0.00D+00 EMaxC= 1.00D-01 BMatC= 5.40D-02 BMatP= 4.52D-01
 IDIUse=3 WtCom= 8.63D-01 WtEn= 1.37D-01
 Coeff-Com:  0.145D+00 0.855D+00
 Coeff-En:   0.269D+00 0.731D+00
 Coeff:      0.162D+00 0.838D+00
 Gap=     0.281 Goal=   None    Shift=    0.000
 RMSDP=6.32D-03 MaxDP=4.65D-01 DE=-1.29D-01 OVMax= 2.12D-01

 Cycle   3  Pass 1  IDiag  1:
 RMSU=  4.59D-03    CP:  8.25D-01  5.32D-01
 E= -631.096249377180     Delta-E=       -0.184729910771 Rises=F Damp=F
 DIIS: error= 2.14D-02 at cycle   3 NSaved=   3.
 NSaved= 3 IEnMin= 3 EnMin= -631.096249377180     IErMin= 2 ErrMin= 1.37D-02
 ErrMax= 2.14D-02  0.00D+00 EMaxC= 1.00D-01 BMatC= 8.14D-02 BMatP= 5.40D-02
 IDIUse=2 WtCom= 0.00D+00 WtEn= 1.00D+00
 Coeff-En:   0.000D+00 0.000D+00 0.100D+01
 Coeff:      0.000D+00 0.000D+00 0.100D+01
 Gap=     0.230 Goal=   None    Shift=    0.000
 RMSDP=1.11D-02 MaxDP=1.08D+00 DE=-1.85D-01 OVMax= 3.83D-01

 Cycle   4  Pass 1  IDiag  1:
 RMSU=  6.71D-03    CP:  9.58D-01  1.11D+00 -6.59D-02
 E= -630.735909494833     Delta-E=        0.360339882347 Rises=F Damp=F
 DIIS: error= 5.56D-02 at cycle   4 NSaved=   4.
 NSaved= 4 IEnMin= 3 EnMin= -631.096249377180     IErMin= 2 ErrMin= 1.37D-02
 ErrMax= 5.56D-02  0.00D+00 EMaxC= 1.00D-01 BMatC= 5.02D-01 BMatP= 5.40D-02
 IDIUse=2 WtCom= 0.00D+00 WtEn= 1.00D+00
 Coeff-En:   0.000D+00 0.000D+00 0.806D+00 0.194D+00
 Coeff:      0.000D+00 0.000D+00 0.806D+00 0.194D+00
 Gap=     0.183 Goal=   None    Shift=    0.000
 RMSDP=5.59D-03 MaxDP=5.50D-01 DE= 3.60D-01 OVMax= 1.81D-01

 Cycle   5  Pass 1  IDiag  1:
 RMSU=  1.38D-03    CP:  8.80D-01  8.52D-01  4.34D-01  5.69D-01
 E= -631.131604506714     Delta-E=       -0.395695011881 Rises=F Damp=F
 DIIS: error= 1.51D-02 at cycle   5 NSaved=   5.
 NSaved= 5 IEnMin= 5 EnMin= -631.131604506714     IErMin= 2 ErrMin= 1.37D-02
 ErrMax= 1.51D-02  0.00D+00 EMaxC= 1.00D-01 BMatC= 3.99D-02 BMatP= 5.40D-02
 IDIUse=3 WtCom= 8.49D-01 WtEn= 1.51D-01
 Coeff-Com: -0.389D-02 0.399D-01 0.329D+00-0.839D-01 0.719D+00
 Coeff-En:   0.000D+00 0.000D+00 0.370D+00 0.000D+00 0.630D+00
 Coeff:     -0.330D-02 0.339D-01 0.335D+00-0.712D-01 0.706D+00
 Gap=     0.224 Goal=   None    Shift=    0.000
 RMSDP=2.65D-03 MaxDP=2.55D-01 DE=-3.96D-01 OVMax= 6.02D-02

 Cycle   6  Pass 1  IDiag  1:
 RMSU=  3.98D-04    CP:  8.44D-01  7.23D-01  6.70D-01  3.44D-01  8.53D-01
 E= -631.165117006349     Delta-E=       -0.033512499635 Rises=F Damp=F
 DIIS: error= 1.48D-03 at cycle   6 NSaved=   6.
 NSaved= 6 IEnMin= 6 EnMin= -631.165117006349     IErMin= 6 ErrMin= 1.48D-03
 ErrMax= 1.48D-03  0.00D+00 EMaxC= 1.00D-01 BMatC= 3.27D-04 BMatP= 3.99D-02
 IDIUse=3 WtCom= 9.85D-01 WtEn= 1.48D-02
 Coeff-Com: -0.383D-02 0.208D-01 0.181D+00-0.601D-01 0.451D+00 0.411D+00
 Coeff-En:   0.000D+00 0.000D+00 0.000D+00 0.000D+00 0.000D+00 0.100D+01
 Coeff:     -0.378D-02 0.205D-01 0.178D+00-0.592D-01 0.444D+00 0.420D+00
 Gap=     0.194 Goal=   None    Shift=    0.000
 RMSDP=3.08D-04 MaxDP=2.89D-02 DE=-3.35D-02 OVMax= 8.73D-03

 Cycle   7  Pass 1  IDiag  1:
 RMSU=  1.20D-04    CP:  8.45D-01  7.44D-01  6.47D-01  3.63D-01  9.06D-01
                    CP:  6.70D-01
 E= -631.165410227437     Delta-E=       -0.000293221088 Rises=F Damp=F
 DIIS: error= 5.29D-04 at cycle   7 NSaved=   7.
 NSaved= 7 IEnMin= 7 EnMin= -631.165410227437     IErMin= 7 ErrMin= 5.29D-04
 ErrMax= 5.29D-04  0.00D+00 EMaxC= 1.00D-01 BMatC= 3.56D-05 BMatP= 3.27D-04
 IDIUse=3 WtCom= 9.95D-01 WtEn= 5.29D-03
 Coeff-Com: -0.652D-03 0.186D-02 0.445D-01-0.172D-01 0.112D+00 0.225D+00
 Coeff-Com:  0.635D+00
 Coeff-En:   0.000D+00 0.000D+00 0.000D+00 0.000D+00 0.000D+00 0.107D+00
 Coeff-En:   0.893D+00
 Coeff:     -0.649D-03 0.185D-02 0.442D-01-0.171D-01 0.112D+00 0.224D+00
 Coeff:      0.636D+00
 Gap=     0.194 Goal=   None    Shift=    0.000
 RMSDP=1.06D-04 MaxDP=7.42D-03 DE=-2.93D-04 OVMax= 2.64D-03

 Cycle   8  Pass 1  IDiag  1:
 RMSU=  2.96D-05    CP:  8.44D-01  7.39D-01  6.57D-01  3.55D-01  8.97D-01
                    CP:  7.49D-01  7.52D-01
 E= -631.165446054120     Delta-E=       -0.000035826683 Rises=F Damp=F
 DIIS: error= 1.06D-04 at cycle   8 NSaved=   8.
 NSaved= 8 IEnMin= 8 EnMin= -631.165446054120     IErMin= 8 ErrMin= 1.06D-04
 ErrMax= 1.06D-04  0.00D+00 EMaxC= 1.00D-01 BMatC= 3.68D-06 BMatP= 3.56D-05
 IDIUse=3 WtCom= 9.99D-01 WtEn= 1.06D-03
 Coeff-Com:  0.244D-03-0.135D-02 0.102D-01-0.363D-02 0.209D-01 0.921D-01
 Coeff-Com:  0.384D+00 0.497D+00
 Coeff-En:   0.000D+00 0.000D+00 0.000D+00 0.000D+00 0.000D+00 0.000D+00
 Coeff-En:   0.000D+00 0.100D+01
 Coeff:      0.244D-03-0.135D-02 0.102D-01-0.363D-02 0.209D-01 0.920D-01
 Coeff:      0.384D+00 0.498D+00
 Gap=     0.194 Goal=   None    Shift=    0.000
 RMSDP=2.83D-05 MaxDP=2.77D-03 DE=-3.58D-05 OVMax= 6.29D-04

 Cycle   9  Pass 1  IDiag  1:
 RMSU=  1.48D-05    CP:  8.44D-01  7.38D-01  6.56D-01  3.56D-01  8.95D-01
                    CP:  7.50D-01  7.72D-01  7.54D-01
 E= -631.165449272369     Delta-E=       -0.000003218249 Rises=F Damp=F
 DIIS: error= 2.06D-05 at cycle   9 NSaved=   9.
 NSaved= 9 IEnMin= 9 EnMin= -631.165449272369     IErMin= 9 ErrMin= 2.06D-05
 ErrMax= 2.06D-05  0.00D+00 EMaxC= 1.00D-01 BMatC= 7.17D-08 BMatP= 3.68D-06
 IDIUse=1 WtCom= 1.00D+00 WtEn= 0.00D+00
 Coeff-Com:  0.157D-03-0.544D-03 0.865D-03-0.395D-03 0.499D-03 0.222D-01
 Coeff-Com:  0.112D+00 0.187D+00 0.677D+00
 Coeff:      0.157D-03-0.544D-03 0.865D-03-0.395D-03 0.499D-03 0.222D-01
 Coeff:      0.112D+00 0.187D+00 0.677D+00
 Gap=     0.194 Goal=   None    Shift=    0.000
 RMSDP=4.22D-06 MaxDP=2.31D-04 DE=-3.22D-06 OVMax= 1.37D-04

 Cycle  10  Pass 1  IDiag  1:
 RMSU=  3.21D-06    CP:  8.44D-01  7.38D-01  6.57D-01  3.56D-01  8.96D-01
                    CP:  7.49D-01  7.75D-01  8.05D-01  1.03D+00
 E= -631.165449312727     Delta-E=       -0.000000040357 Rises=F Damp=F
 DIIS: error= 9.68D-06 at cycle  10 NSaved=  10.
 NSaved=10 IEnMin=10 EnMin= -631.165449312727     IErMin=10 ErrMin= 9.68D-06
 ErrMax= 9.68D-06  0.00D+00 EMaxC= 1.00D-01 BMatC= 2.83D-08 BMatP= 7.17D-08
 IDIUse=1 WtCom= 1.00D+00 WtEn= 0.00D+00
 Coeff-Com:  0.544D-04-0.115D-03-0.553D-03 0.130D-03-0.164D-02 0.257D-02
 Coeff-Com:  0.168D-01 0.446D-01 0.416D+00 0.523D+00
 Coeff:      0.544D-04-0.115D-03-0.553D-03 0.130D-03-0.164D-02 0.257D-02
 Coeff:      0.168D-01 0.446D-01 0.416D+00 0.523D+00
 Gap=     0.194 Goal=   None    Shift=    0.000
 RMSDP=2.61D-06 MaxDP=3.96D-04 DE=-4.04D-08 OVMax= 6.06D-05

 Cycle  11  Pass 1  IDiag  1:
 RMSU=  9.92D-07    CP:  8.44D-01  7.38D-01  6.56D-01  3.56D-01  8.96D-01
                    CP:  7.50D-01  7.75D-01  8.01D-01  9.95D-01  6.71D-01
 E= -631.165449340119     Delta-E=       -0.000000027392 Rises=F Damp=F
 DIIS: error= 1.64D-06 at cycle  11 NSaved=  11.
 NSaved=11 IEnMin=11 EnMin= -631.165449340119     IErMin=11 ErrMin= 1.64D-06
 ErrMax= 1.64D-06  0.00D+00 EMaxC= 1.00D-01 BMatC= 1.17D-09 BMatP= 2.83D-08
 IDIUse=1 WtCom= 1.00D+00 WtEn= 0.00D+00
 Coeff-Com:  0.137D-04-0.374D-04-0.289D-03 0.795D-04-0.738D-03 0.660D-03
 Coeff-Com:  0.283D-02 0.125D-01 0.162D+00 0.250D+00 0.573D+00
 Coeff:      0.137D-04-0.374D-04-0.289D-03 0.795D-04-0.738D-03 0.660D-03
 Coeff:      0.283D-02 0.125D-01 0.162D+00 0.250D+00 0.573D+00
 Gap=     0.194 Goal=   None    Shift=    0.000
 RMSDP=3.94D-07 MaxDP=4.17D-05 DE=-2.74D-08 OVMax= 8.12D-06

 Cycle  12  Pass 1  IDiag  1:
 RMSU=  2.66D-07    CP:  8.44D-01  7.38D-01  6.56D-01  3.56D-01  8.96D-01
                    CP:  7.51D-01  7.75D-01  8.02D-01  1.00D+00  6.76D-01
                    CP:  8.80D-01
 E= -631.165449340935     Delta-E=       -0.000000000816 Rises=F Damp=F
 DIIS: error= 7.09D-07 at cycle  12 NSaved=  12.
 NSaved=12 IEnMin=12 EnMin= -631.165449340935     IErMin=12 ErrMin= 7.09D-07
 ErrMax= 7.09D-07  0.00D+00 EMaxC= 1.00D-01 BMatC= 1.73D-10 BMatP= 1.17D-09
 IDIUse=1 WtCom= 1.00D+00 WtEn= 0.00D+00
 Coeff-Com: -0.238D-05 0.352D-05-0.102D-03 0.287D-04-0.205D-03 0.505D-04
 Coeff-Com: -0.117D-02 0.272D-03 0.311D-01 0.669D-01 0.307D+00 0.596D+00
 Coeff:     -0.238D-05 0.352D-05-0.102D-03 0.287D-04-0.205D-03 0.505D-04
 Coeff:     -0.117D-02 0.272D-03 0.311D-01 0.669D-01 0.307D+00 0.596D+00
 Gap=     0.194 Goal=   None    Shift=    0.000
 RMSDP=3.10D-07 MaxDP=3.45D-05 DE=-8.16D-10 OVMax= 3.79D-06

 Cycle  13  Pass 1  IDiag  1:
 RMSU=  8.33D-08    CP:  8.44D-01  7.38D-01  6.56D-01  3.56D-01  8.96D-01
                    CP:  7.51D-01  7.74D-01  8.03D-01  1.01D+00  6.87D-01
                    CP:  8.74D-01  7.68D-01
 E= -631.165449341090     Delta-E=       -0.000000000155 Rises=F Damp=F
 DIIS: error= 1.43D-07 at cycle  13 NSaved=  13.
 NSaved=13 IEnMin=13 EnMin= -631.165449341090     IErMin=13 ErrMin= 1.43D-07
 ErrMax= 1.43D-07  0.00D+00 EMaxC= 1.00D-01 BMatC= 7.73D-12 BMatP= 1.73D-10
 IDIUse=1 WtCom= 1.00D+00 WtEn= 0.00D+00
 Coeff-Com: -0.224D-05 0.412D-05-0.212D-04 0.640D-05-0.306D-04-0.143D-04
 Coeff-Com: -0.590D-03-0.812D-03-0.915D-03 0.539D-02 0.522D-01 0.197D+00
 Coeff-Com:  0.748D+00
 Coeff:     -0.224D-05 0.412D-05-0.212D-04 0.640D-05-0.306D-04-0.143D-04
 Coeff:     -0.590D-03-0.812D-03-0.915D-03 0.539D-02 0.522D-01 0.197D+00
 Coeff:      0.748D+00
 Gap=     0.194 Goal=   None    Shift=    0.000
 RMSDP=8.92D-08 MaxDP=1.41D-05 DE=-1.55D-10 OVMax= 1.06D-06

 Cycle  14  Pass 1  IDiag  1:
 RMSU=  2.75D-08    CP:  8.44D-01  7.38D-01  6.56D-01  3.56D-01  8.96D-01
                    CP:  7.51D-01  7.74D-01  8.03D-01  1.01D+00  6.89D-01
                    CP:  8.89D-01  7.69D-01  8.20D-01
 E= -631.165449341101     Delta-E=       -0.000000000011 Rises=F Damp=F
 DIIS: error= 9.06D-08 at cycle  14 NSaved=  14.
 NSaved=14 IEnMin=14 EnMin= -631.165449341101     IErMin=14 ErrMin= 9.06D-08
 ErrMax= 9.06D-08  0.00D+00 EMaxC= 1.00D-01 BMatC= 1.85D-12 BMatP= 7.73D-12
 IDIUse=1 WtCom= 1.00D+00 WtEn= 0.00D+00
 Coeff-Com: -0.122D-05 0.243D-05-0.261D-05 0.489D-06 0.357D-05-0.753D-05
 Coeff-Com: -0.229D-03-0.499D-03-0.325D-02-0.289D-02-0.402D-03 0.577D-01
 Coeff-Com:  0.451D+00 0.498D+00
 Coeff:     -0.122D-05 0.243D-05-0.261D-05 0.489D-06 0.357D-05-0.753D-05
 Coeff:     -0.229D-03-0.499D-03-0.325D-02-0.289D-02-0.402D-03 0.577D-01
 Coeff:      0.451D+00 0.498D+00
 Gap=     0.194 Goal=   None    Shift=    0.000
 RMSDP=1.38D-08 MaxDP=1.05D-06 DE=-1.11D-11 OVMax= 4.98D-07

 Cycle  15  Pass 1  IDiag  1:
 RMSU=  7.33D-09    CP:  8.44D-01  7.38D-01  6.56D-01  3.56D-01  8.96D-01
                    CP:  7.51D-01  7.74D-01  8.03D-01  1.01D+00  6.90D-01
                    CP:  8.90D-01  7.77D-01  8.74D-01  7.39D-01
 E= -631.165449341121     Delta-E=       -0.000000000020 Rises=F Damp=F
 DIIS: error= 2.28D-08 at cycle  15 NSaved=  15.
 NSaved=15 IEnMin=15 EnMin= -631.165449341121     IErMin=15 ErrMin= 2.28D-08
 ErrMax= 2.28D-08  0.00D+00 EMaxC= 1.00D-01 BMatC= 7.76D-14 BMatP= 1.85D-12
 IDIUse=1 WtCom= 1.00D+00 WtEn= 0.00D+00
 Coeff-Com: -0.437D-06 0.904D-06 0.110D-06-0.182D-06 0.368D-05-0.115D-05
 Coeff-Com: -0.713D-04-0.184D-03-0.144D-02-0.165D-02-0.401D-02 0.157D-01
 Coeff-Com:  0.175D+00 0.246D+00 0.571D+00
 Coeff:     -0.437D-06 0.904D-06 0.110D-06-0.182D-06 0.368D-05-0.115D-05
 Coeff:     -0.713D-04-0.184D-03-0.144D-02-0.165D-02-0.401D-02 0.157D-01
 Coeff:      0.175D+00 0.246D+00 0.571D+00
 Gap=     0.194 Goal=   None    Shift=    0.000
 RMSDP=6.00D-09 MaxDP=7.68D-07 DE=-1.98D-11 OVMax= 1.51D-07

 SCF Done:  E(RB3LYP) =  -631.165449341     A.U. after   15 cycles
            NFock= 15  Conv=0.60D-08     -V/T= 2.0032
 KE= 6.291359930334D+02 PE=-3.117752944043D+03 EE= 1.034095838873D+03
 Leave Link  502 at Thu Jul 04 13:58:10 2019, MaxMem=   209715200 cpu:       297.0
 (Enter C:\G09W\l601.exe)
 Copying SCF densities to generalized density rwf, IOpCl= 0 IROHF=0.

 **********************************************************************

            Population analysis using the SCF density.

 **********************************************************************

 Orbital symmetries:
       Occupied  (A) (A) (A) (A) (A) (A) (A) (A) (A) (A) (A) (A)
                 (A) (A) (A) (A) (A) (A) (A) (A) (A) (A) (A) (A)
                 (A) (A) (A) (A) (A) (A) (A) (A) (A) (A) (A) (A)
                 (A) (A) (A) (A) (A) (A) (A) (A) (A) (A) (A) (A)
                 (A) (A)
       Virtual   (A) (A) (A) (A) (A) (A) (A) (A) (A) (A) (A) (A)
                 (A) (A) (A) (A) (A) (A) (A) (A) (A) (A) (A) (A)
                 (A) (A) (A) (A) (A) (A) (A) (A) (A) (A) (A) (A)
                 (A) (A) (A) (A) (A) (A) (A) (A) (A) (A) (A) (A)
                 (A) (A) (A) (A) (A) (A) (A) (A) (A) (A) (A) (A)
                 (A) (A) (A) (A) (A) (A) (A) (A) (A) (A) (A) (A)
                 (A) (A) (A) (A) (A) (A) (A) (A) (A) (A) (A) (A)
                 (A) (A) (A) (A) (A) (A) (A) (A) (A) (A) (A) (A)
                 (A) (A) (A) (A) (A) (A) (A) (A) (A) (A) (A) (A)
                 (A) (A) (A) (A) (A) (A) (A) (A) (A) (A) (A) (A)
                 (A) (A) (A) (A) (A) (A) (A) (A) (A) (A) (A) (A)
                 (A) (A) (A) (A) (A) (A) (A) (A) (A) (A) (A) (A)
                 (A) (A) (A) (A) (A) (A) (A) (A) (A) (A) (A) (A)
                 (A) (A) (A) (A) (A) (A) (A) (A) (A) (A) (A) (A)
                 (A) (A) (A) (A) (A) (A) (A) (A) (A) (A) (A) (A)
                 (A) (A) (A) (A) (A) (A) (A) (A) (A) (A) (A) (A)
                 (A) (A) (A) (A) (A) (A) (A) (A) (A) (A) (A) (A)
                 (A) (A) (A) (A) (A) (A) (A) (A) (A) (A) (A) (A)
                 (A) (A) (A) (A) (A) (A) (A) (A) (A) (A) (A) (A)
                 (A) (A) (A) (A) (A) (A) (A) (A) (A) (A) (A) (A)
                 (A) (A) (A) (A) (A) (A) (A) (A) (A) (A) (A) (A)
                 (A) (A) (A) (A) (A) (A) (A) (A) (A) (A) (A) (A)
                 (A) (A) (A) (A) (A) (A) (A) (A) (A) (A) (A) (A)
                 (A) (A) (A) (A) (A) (A) (A) (A) (A) (A) (A) (A)
                 (A) (A) (A) (A) (A) (A) (A) (A) (A) (A) (A) (A)
                 (A) (A) (A) (A) (A) (A) (A) (A) (A) (A) (A) (A)
                 (A) (A) (A) (A) (A) (A) (A) (A) (A) (A) (A) (A)
                 (A) (A) (A) (A) (A) (A) (A) (A) (A) (A)
 The electronic state is 1-A.
 Alpha  occ. eigenvalues --  -19.15373 -19.08440 -14.36263 -10.27865 -10.24386
 Alpha  occ. eigenvalues --  -10.24275 -10.23568 -10.20758 -10.19923 -10.19875
 Alpha  occ. eigenvalues --  -10.19556 -10.19539 -10.18492 -10.16454  -1.10946
 Alpha  occ. eigenvalues --   -1.02338  -0.98231  -0.88821  -0.81782  -0.78300
 Alpha  occ. eigenvalues --   -0.77901  -0.73952  -0.71148  -0.64373  -0.63083
 Alpha  occ. eigenvalues --   -0.61601  -0.58409  -0.54736  -0.53003  -0.51268
 Alpha  occ. eigenvalues --   -0.50346  -0.49911  -0.48603  -0.45811  -0.45175
 Alpha  occ. eigenvalues --   -0.44575  -0.42462  -0.41690  -0.40656  -0.40420
 Alpha  occ. eigenvalues --   -0.38785  -0.38258  -0.37966  -0.36488  -0.35931
 Alpha  occ. eigenvalues --   -0.29377  -0.28420  -0.27584  -0.26515  -0.23588
 Alpha virt. eigenvalues --   -0.04196  -0.04148  -0.02135  -0.01700  -0.01055
 Alpha virt. eigenvalues --   -0.00218   0.00471   0.01363   0.02018   0.02286
 Alpha virt. eigenvalues --    0.02854   0.03664   0.04153   0.05016   0.05317
 Alpha virt. eigenvalues --    0.05967   0.06106   0.07122   0.07523   0.08019
 Alpha virt. eigenvalues --    0.08732   0.08998   0.09753   0.09813   0.09895
 Alpha virt. eigenvalues --    0.10514   0.10701   0.10832   0.11114   0.11488
 Alpha virt. eigenvalues --    0.11736   0.11871   0.12383   0.12983   0.13169
 Alpha virt. eigenvalues --    0.13622   0.13846   0.14116   0.14369   0.14797
 Alpha virt. eigenvalues --    0.15440   0.15760   0.15946   0.16270   0.16762
 Alpha virt. eigenvalues --    0.16881   0.17066   0.17594   0.18285   0.18987
 Alpha virt. eigenvalues --    0.19359   0.20322   0.20537   0.20884   0.21184
 Alpha virt. eigenvalues --    0.21931   0.22455   0.22971   0.23690   0.23761
 Alpha virt. eigenvalues --    0.24334   0.25075   0.25429   0.25617   0.25870
 Alpha virt. eigenvalues --    0.26658   0.27097   0.27492   0.27955   0.29345
 Alpha virt. eigenvalues --    0.29519   0.29934   0.30222   0.30881   0.31188
 Alpha virt. eigenvalues --    0.31417   0.32427   0.32675   0.33027   0.33474
 Alpha virt. eigenvalues --    0.34124   0.34325   0.34834   0.35150   0.36584
 Alpha virt. eigenvalues --    0.36695   0.37047   0.37368   0.39736   0.40236
 Alpha virt. eigenvalues --    0.42521   0.43832   0.46332   0.46878   0.47831
 Alpha virt. eigenvalues --    0.48477   0.49577   0.50365   0.51529   0.51940
 Alpha virt. eigenvalues --    0.53514   0.53804   0.55507   0.56114   0.57101
 Alpha virt. eigenvalues --    0.57543   0.58041   0.58601   0.60303   0.60536
 Alpha virt. eigenvalues --    0.61806   0.63510   0.63904   0.64474   0.64761
 Alpha virt. eigenvalues --    0.65091   0.66089   0.66933   0.67437   0.68640
 Alpha virt. eigenvalues --    0.69590   0.70082   0.70393   0.70734   0.73391
 Alpha virt. eigenvalues --    0.73730   0.74746   0.75224   0.75967   0.76955
 Alpha virt. eigenvalues --    0.77645   0.79308   0.81641   0.82344   0.83367
 Alpha virt. eigenvalues --    0.85081   0.85898   0.86916   0.87630   0.88490
 Alpha virt. eigenvalues --    0.88608   0.90794   0.91386   0.92725   0.94363
 Alpha virt. eigenvalues --    0.95372   0.96785   0.97294   0.97841   0.99740
 Alpha virt. eigenvalues --    1.00123   1.01370   1.03443   1.04926   1.05789
 Alpha virt. eigenvalues --    1.07777   1.08728   1.09490   1.11397   1.13674
 Alpha virt. eigenvalues --    1.16194   1.16762   1.20219   1.21610   1.23761
 Alpha virt. eigenvalues --    1.24153   1.25636   1.26562   1.27445   1.32679
 Alpha virt. eigenvalues --    1.34506   1.35770   1.37928   1.39696   1.40263
 Alpha virt. eigenvalues --    1.41578   1.44820   1.45250   1.46930   1.50830
 Alpha virt. eigenvalues --    1.52527   1.53552   1.54151   1.54597   1.56069
 Alpha virt. eigenvalues --    1.57159   1.58738   1.59724   1.60455   1.61168
 Alpha virt. eigenvalues --    1.61780   1.62831   1.64462   1.65365   1.67535
 Alpha virt. eigenvalues --    1.68063   1.68740   1.71943   1.73924   1.75088
 Alpha virt. eigenvalues --    1.75601   1.76288   1.79159   1.80444   1.81376
 Alpha virt. eigenvalues --    1.82843   1.84329   1.87713   1.89161   1.89958
 Alpha virt. eigenvalues --    1.90559   1.91256   1.93709   1.95513   1.96368
 Alpha virt. eigenvalues --    1.97210   1.98365   2.00434   2.02363   2.04268
 Alpha virt. eigenvalues --    2.05089   2.05852   2.07823   2.08719   2.12118
 Alpha virt. eigenvalues --    2.12926   2.13075   2.17165   2.17389   2.20200
 Alpha virt. eigenvalues --    2.24022   2.27333   2.30301   2.31366   2.36911
 Alpha virt. eigenvalues --    2.40298   2.41856   2.43478   2.45178   2.46587
 Alpha virt. eigenvalues --    2.46911   2.48516   2.53781   2.54329   2.55039
 Alpha virt. eigenvalues --    2.56273   2.56645   2.57555   2.60819   2.63787
 Alpha virt. eigenvalues --    2.64541   2.65332   2.68908   2.70324   2.70735
 Alpha virt. eigenvalues --    2.73269   2.74963   2.75149   2.77063   2.78291
 Alpha virt. eigenvalues --    2.78901   2.80961   2.81261   2.83766   2.88067
 Alpha virt. eigenvalues --    2.89008   2.90091   2.90903   2.92492   2.93532
 Alpha virt. eigenvalues --    2.94439   2.96542   2.98655   2.99993   3.01048
 Alpha virt. eigenvalues --    3.01662   3.05096   3.10493   3.11973   3.16368
 Alpha virt. eigenvalues --    3.17025   3.17758   3.19897   3.20430   3.25325
 Alpha virt. eigenvalues --    3.25931   3.34939   3.37421   3.43328   3.44674
 Alpha virt. eigenvalues --    3.49124   3.49579   3.54079   3.62552   3.63145
 Alpha virt. eigenvalues --    3.67597   3.76498   3.80608   3.80678   3.82944
 Alpha virt. eigenvalues --    3.86073   3.97590   3.99588   4.03373   4.06378
 Alpha virt. eigenvalues --    4.10959   4.13145   4.13903   4.17023   4.32018
 Alpha virt. eigenvalues --    4.36198   4.84219   4.85923   5.04099   5.08568
 Alpha virt. eigenvalues --    5.13274   5.19574   5.46139   5.71227   5.91642
 Alpha virt. eigenvalues --   23.60149  23.73578  23.87637  23.92733  23.95598
 Alpha virt. eigenvalues --   23.97217  23.98430  24.08221  24.11451  24.20280
 Alpha virt. eigenvalues --   24.27167  35.66450  49.92679  50.09954
          Condensed to atoms (all electrons):
               1          2          3          4          5          6
     1  C   12.059525  -1.364414  -5.740938   1.692312  -0.687026  -0.106307
     2  C   -1.364414  11.932721  -0.579035  -0.983215  -0.459623  -1.063323
     3  C   -5.740938  -0.579035  12.470695  -1.390849  -0.682645   1.446265
     4  C    1.692312  -0.983215  -1.390849   8.857533   0.048353  -2.242101
     5  C   -0.687026  -0.459623  -0.682645   0.048353   8.643393  -0.149688
     6  C   -0.106307  -1.063323   1.446265  -2.242101  -0.149688   8.242899
     7  N    0.006139  -0.325272  -0.239162   0.087755   0.006009   0.073500
     8  C   -0.248536  -1.251164   0.551633   0.065301  -0.233068   0.164471
     9  C   -0.390022   0.620352   0.148047  -0.025179   0.016707  -0.038463
    10  C    0.292622   0.227864  -0.402703   0.006045   0.057195  -0.019400
    11  C   -0.006735  -0.104150   0.024928   0.006323  -0.004649   0.005131
    12  O   -0.013168   0.016747  -0.008470  -0.000632  -0.006269  -0.003530
    13  O    0.001315  -0.000534   0.000574   0.000075   0.000206   0.000113
    14  C    0.100804   0.049740  -0.146158  -0.259553  -0.795778  -0.307586
    15  H    0.481702  -0.073071  -0.049970   0.024891   0.012981  -0.068604
    16  H   -0.079775  -0.091475   0.555550  -0.081128   0.014093   0.021162
    17  H    0.031935   0.005514  -0.076731   0.367129  -0.038481   0.020011
    18  H   -0.060707   0.024580   0.045449   0.002951  -0.071049   0.366655
    19  H    0.064513  -0.127809  -0.078263   0.004829  -0.006376   0.012974
    20  H   -0.007571   0.026187   0.007226  -0.000491   0.002703  -0.000479
    21  H    0.224524  -0.125403  -0.163757   0.019350   0.037729   0.006669
    22  H   -0.187272   0.040693   0.175761  -0.025705   0.004243  -0.003929
    23  H   -0.003899   0.003936   0.002067  -0.038229   0.063906   0.001026
    24  H    0.026050  -0.000253  -0.025018  -0.066695  -0.098665   0.106065
    25  H   -0.016176   0.005085   0.022449   0.148583  -0.100944  -0.123063
               7          8          9         10         11         12
     1  C    0.006139  -0.248536  -0.390022   0.292622  -0.006735  -0.013168
     2  C   -0.325272  -1.251164   0.620352   0.227864  -0.104150   0.016747
     3  C   -0.239162   0.551633   0.148047  -0.402703   0.024928  -0.008470
     4  C    0.087755   0.065301  -0.025179   0.006045   0.006323  -0.000632
     5  C    0.006009  -0.233068   0.016707   0.057195  -0.004649  -0.006269
     6  C    0.073500   0.164471  -0.038463  -0.019400   0.005131  -0.003530
     7  N    7.235582   0.518061  -0.578377  -0.219638   0.073685  -0.013788
     8  C    0.518061   9.691757  -2.394342  -1.392582   0.948408   0.176775
     9  C   -0.578377  -2.394342   8.407398   0.872700  -0.621062  -0.341750
    10  C   -0.219638  -1.392582   0.872700   6.245989  -0.437565   0.190768
    11  C    0.073685   0.948408  -0.621062  -0.437565   5.606477   0.168614
    12  O   -0.013788   0.176775  -0.341750   0.190768   0.168614   8.172897
    13  O   -0.001214  -0.093868  -0.042922   0.028766   0.401490  -0.082625
    14  C   -0.015869  -0.078909   0.002984   0.018917  -0.001106  -0.000629
    15  H   -0.006828  -0.008371  -0.008049   0.002125   0.000589   0.000570
    16  H   -0.026252  -0.016427   0.003680   0.007067  -0.000336   0.000095
    17  H   -0.003361   0.004524  -0.000632  -0.002492  -0.000152   0.000099
    18  H   -0.006802   0.004280   0.001580  -0.001335  -0.000428   0.000160
    19  H    0.416761   0.157963  -0.129727  -0.052192   0.017976   0.001499
    20  H   -0.009990  -0.203522   0.529018   0.015192  -0.041364  -0.005641
    21  H    0.019154  -0.008372  -0.058439   0.378096   0.010827  -0.068298
    22  H   -0.006776  -0.031106   0.041336   0.326976   0.006819  -0.058551
    23  H    0.000056   0.000024  -0.000230  -0.000490   0.000024  -0.000001
    24  H   -0.000163  -0.001020   0.000094   0.000667   0.000000  -0.000008
    25  H   -0.000436  -0.000028   0.000196   0.000132  -0.000018   0.000001
              13         14         15         16         17         18
     1  C    0.001315   0.100804   0.481702  -0.079775   0.031935  -0.060707
     2  C   -0.000534   0.049740  -0.073071  -0.091475   0.005514   0.024580
     3  C    0.000574  -0.146158  -0.049970   0.555550  -0.076731   0.045449
     4  C    0.000075  -0.259553   0.024891  -0.081128   0.367129   0.002951
     5  C    0.000206  -0.795778   0.012981   0.014093  -0.038481  -0.071049
     6  C    0.000113  -0.307586  -0.068604   0.021162   0.020011   0.366655
     7  N   -0.001214  -0.015869  -0.006828  -0.026252  -0.003361  -0.006802
     8  C   -0.093868  -0.078909  -0.008371  -0.016427   0.004524   0.004280
     9  C   -0.042922   0.002984  -0.008049   0.003680  -0.000632   0.001580
    10  C    0.028766   0.018917   0.002125   0.007067  -0.002492  -0.001335
    11  C    0.401490  -0.001106   0.000589  -0.000336  -0.000152  -0.000428
    12  O   -0.082625  -0.000629   0.000570   0.000095   0.000099   0.000160
    13  O    8.139881   0.000008   0.000033  -0.000009  -0.000003  -0.000009
    14  C    0.000008   6.860237   0.002851   0.006996  -0.004825   0.002849
    15  H    0.000033   0.002851   0.532900  -0.003673   0.002053  -0.020565
    16  H   -0.000009   0.006996  -0.003673   0.538585  -0.020289   0.002152
    17  H   -0.000003  -0.004825   0.002053  -0.020289   0.535691  -0.002671
    18  H   -0.000009   0.002849  -0.020565   0.002152  -0.002671   0.544695
    19  H   -0.000179  -0.004598   0.001463  -0.000409   0.000316  -0.000263
    20  H   -0.007043   0.000311   0.000206   0.000577  -0.000096  -0.000063
    21  H    0.002447   0.004737  -0.008405   0.000600  -0.000410  -0.000819
    22  H    0.000438  -0.001958   0.002217  -0.003402  -0.000077  -0.000233
    23  H    0.000000   0.329642   0.000102   0.000000   0.002032   0.000970
    24  H    0.000000   0.408872   0.000777  -0.000212   0.001907  -0.000319
    25  H    0.000000   0.421074  -0.000247   0.000777  -0.002597   0.000749
              19         20         21         22         23         24
     1  C    0.064513  -0.007571   0.224524  -0.187272  -0.003899   0.026050
     2  C   -0.127809   0.026187  -0.125403   0.040693   0.003936  -0.000253
     3  C   -0.078263   0.007226  -0.163757   0.175761   0.002067  -0.025018
     4  C    0.004829  -0.000491   0.019350  -0.025705  -0.038229  -0.066695
     5  C   -0.006376   0.002703   0.037729   0.004243   0.063906  -0.098665
     6  C    0.012974  -0.000479   0.006669  -0.003929   0.001026   0.106065
     7  N    0.416761  -0.009990   0.019154  -0.006776   0.000056  -0.000163
     8  C    0.157963  -0.203522  -0.008372  -0.031106   0.000024  -0.001020
     9  C   -0.129727   0.529018  -0.058439   0.041336  -0.000230   0.000094
    10  C   -0.052192   0.015192   0.378096   0.326976  -0.000490   0.000667
    11  C    0.017976  -0.041364   0.010827   0.006819   0.000024   0.000000
    12  O    0.001499  -0.005641  -0.068298  -0.058551  -0.000001  -0.000008
    13  O   -0.000179  -0.007043   0.002447   0.000438   0.000000   0.000000
    14  C   -0.004598   0.000311   0.004737  -0.001958   0.329642   0.408872
    15  H    0.001463   0.000206  -0.008405   0.002217   0.000102   0.000777
    16  H   -0.000409   0.000577   0.000600  -0.003402   0.000000  -0.000212
    17  H    0.000316  -0.000096  -0.000410  -0.000077   0.002032   0.001907
    18  H   -0.000263  -0.000063  -0.000819  -0.000233   0.000970  -0.000319
    19  H    0.412910  -0.004821   0.002257  -0.001658   0.000144  -0.000108
    20  H   -0.004821   0.527821  -0.001867  -0.000864  -0.000010   0.000012
    21  H    0.002257  -0.001867   0.623542  -0.090736  -0.000157  -0.000098
    22  H   -0.001658  -0.000864  -0.090736   0.614396   0.000029   0.000175
    23  H    0.000144  -0.000010  -0.000157   0.000029   0.539377  -0.030427
    24  H   -0.000108   0.000012  -0.000098   0.000175  -0.030427   0.553974
    25  H   -0.000150   0.000008   0.000205  -0.000166  -0.045016  -0.021757
              25
     1  C   -0.016176
     2  C    0.005085
     3  C    0.022449
     4  C    0.148583
     5  C   -0.100944
     6  C   -0.123063
     7  N   -0.000436
     8  C   -0.000028
     9  C    0.000196
    10  C    0.000132
    11  C   -0.000018
    12  O    0.000001
    13  O    0.000000
    14  C    0.421074
    15  H   -0.000247
    16  H    0.000777
    17  H   -0.002597
    18  H    0.000749
    19  H   -0.000150
    20  H    0.000008
    21  H    0.000205
    22  H   -0.000166
    23  H   -0.045016
    24  H   -0.021757
    25  H    0.567510
 Mulliken charges:
               1
     1  C   -0.068894
     2  C   -0.404677
     3  C    0.133054
     4  C   -0.217653
     5  C    0.426743
     6  C   -0.340467
     7  N    0.017226
     8  C   -0.321883
     9  C   -0.014897
    10  C   -0.142726
    11  C   -0.053728
    12  O   -0.124866
    13  O   -0.346942
    14  C   -0.593055
    15  H    0.182324
    16  H    0.172052
    17  H    0.181608
    18  H    0.168195
    19  H    0.312947
    20  H    0.174559
    21  H    0.196623
    22  H    0.199351
    23  H    0.175126
    24  H    0.146147
    25  H    0.143831
 Sum of Mulliken charges =   0.00000
 Mulliken charges with hydrogens summed into heavy atoms:
               1
     1  C    0.113430
     2  C   -0.404677
     3  C    0.305107
     4  C   -0.036045
     5  C    0.426743
     6  C   -0.172272
     7  N    0.330174
     8  C   -0.321883
     9  C    0.159662
    10  C    0.253248
    11  C   -0.053728
    12  O   -0.124866
    13  O   -0.346942
    14  C   -0.127951
 Electronic spatial extent (au):  <R**2>=           3795.6332
 Charge=              0.0000 electrons
 Dipole moment (field-independent basis, Debye):
    X=             -8.4163    Y=              1.9947    Z=              0.7420  Tot=              8.6812
 Quadrupole moment (field-independent basis, Debye-Ang):
   XX=           -111.5280   YY=            -78.8724   ZZ=            -78.6124
   XY=              9.7768   XZ=              4.8443   YZ=             -2.0366
 Traceless Quadrupole moment (field-independent basis, Debye-Ang):
   XX=            -21.8571   YY=             10.7986   ZZ=             11.0585
   XY=              9.7768   XZ=              4.8443   YZ=             -2.0366
 Octapole moment (field-independent basis, Debye-Ang**2):
  XXX=           -223.3678  YYY=             10.6202  ZZZ=             -2.7993  XYY=              6.8529
  XXY=             17.2058  XXZ=              7.9292  XZZ=             -0.2226  YZZ=             -2.0439
  YYZ=              4.6934  XYZ=              5.0245
 Hexadecapole moment (field-independent basis, Debye-Ang**3):
 XXXX=          -5202.5684 YYYY=           -400.7457 ZZZZ=           -326.7467 XXXY=            150.3904
 XXXZ=             86.7836 YYYX=             20.4228 YYYZ=             12.1596 ZZZX=             -7.1895
 ZZZY=            -10.8253 XXYY=           -809.0587 XXZZ=           -759.6306 YYZZ=           -118.7606
 XXYZ=            -26.7722 YYXZ=             14.0046 ZZXY=             -1.5462
 N-N= 8.233556627959D+02 E-N=-3.117752943834D+03  KE= 6.291359930334D+02
 No NMR shielding tensors so no spin-rotation constants.
 Leave Link  601 at Thu Jul 04 13:58:11 2019, MaxMem=   209715200 cpu:         1.0
 (Enter C:\G09W\l602.exe)
 FitSet:  NAtFit=    25 NAtPot=    25 NAtFrz=     0 MDM=    29 TotChg=   0.00000
 Breneman (CHELPG) radii used.
 Generate Potential Derived Charges using the Breneman model, NDens= 1.
 Grid spacing= 0.300 Box extension= 2.800
 NStep X,Y,Z=   55     33     34   Total possible points=       61710
 Number of Points to Fit=   16194

 **********************************************************************

            Electrostatic Properties Using The SCF Density

 **********************************************************************

       Atomic Center    1 is at  -1.457991 -0.100950  1.249215
       Atomic Center    2 is at  -0.845559  0.691065  0.292200
       Atomic Center    3 is at  -1.543674  1.023768 -0.860390
       Atomic Center    4 is at  -2.834528  0.565536 -1.049039
       Atomic Center    5 is at  -3.456043 -0.241212 -0.100658
       Atomic Center    6 is at  -2.747859 -0.565775  1.048834
       Atomic Center    7 is at   0.477444  1.179361  0.501536
       Atomic Center    8 is at   1.607630  0.494456  0.212061
       Atomic Center    9 is at   2.885101  0.878995  0.288546
       Atomic Center   10 is at   1.570195 -0.931867 -0.277137
       Atomic Center   11 is at   3.726859 -0.236241 -0.132788
       Atomic Center   12 is at   2.915609 -1.276098 -0.456079
       Atomic Center   13 is at   4.904905 -0.316694 -0.213195
       Atomic Center   14 is at  -4.854850 -0.762515 -0.330287
       Atomic Center   15 is at  -0.926415 -0.344332  2.151939
       Atomic Center   16 is at  -1.072723  1.642566 -1.603788
       Atomic Center   17 is at  -3.363494  0.836162 -1.946530
       Atomic Center   18 is at  -3.207695 -1.180756  1.802599
       Atomic Center   19 is at   0.580909  2.136306  0.751396
       Atomic Center   20 is at   3.283274  1.823847  0.595629
       Atomic Center   21 is at   1.112816 -1.597484  0.444832
       Atomic Center   22 is at   1.036422 -1.021640 -1.216044
       Atomic Center   23 is at  -4.842180 -1.621054 -0.996075
       Atomic Center   24 is at  -5.316955 -1.072589  0.599514
       Atomic Center   25 is at  -5.485883 -0.005773 -0.783374
   16194 points will be used for fitting atomic charges
 Fitting point charges to electrostatic potential
 Charges from ESP fit, RMS=   0.00353 RRMS=   0.15400:
 ESP charges:
               1
     1  C   -0.141624
     2  C    0.250293
     3  C   -0.117930
     4  C   -0.201819
     5  C    0.167414
     6  C   -0.205641
     7  N   -0.608932
     8  C    0.356286
     9  C   -0.627473
    10  C    0.340540
    11  C    0.851637
    12  O   -0.502596
    13  O   -0.599399
    14  C   -0.130677
    15  H    0.114970
    16  H    0.103289
    17  H    0.127906
    18  H    0.131383
    19  H    0.351692
    20  H    0.210382
    21  H    0.001710
    22  H   -0.008564
    23  H    0.050373
    24  H    0.043896
    25  H    0.042883
 Sum of ESP charges =   0.00000
 ESP charges with hydrogens summed into heavy atoms:
               1
     1  C   -0.026654
     2  C    0.250293
     3  C   -0.014641
     4  C   -0.073913
     5  C    0.167414
     6  C   -0.074258
     7  N   -0.257240
     8  C    0.356286
     9  C   -0.417090
    10  C    0.333687
    11  C    0.851637
    12  O   -0.502596
    13  O   -0.599399
    14  C    0.006475
 Charge=   0.00000 Dipole=    -8.3988     2.1186     0.8241 Tot=     8.7010
 -----------------------------------------------------------------

              Electrostatic Properties (Atomic Units)

 -----------------------------------------------------------------
    Center     Electric         -------- Electric Field --------
               Potential          X             Y             Z
 -----------------------------------------------------------------
    1 Atom    -14.753987
    2 Atom    -14.713188
    3 Atom    -14.753456
    4 Atom    -14.756506
    5 Atom    -14.743639
    6 Atom    -14.756704
    7 Atom    -18.343597
    8 Atom    -14.709398
    9 Atom    -14.785944
   10 Atom    -14.702213
   11 Atom    -14.674079
   12 Atom    -22.343014
   13 Atom    -22.414707
   14 Atom    -14.761155
   15 Atom     -1.083549
   16 Atom     -1.082709
   17 Atom     -1.088331
   18 Atom     -1.088877
   19 Atom     -1.001086
   20 Atom     -1.092352
   21 Atom     -1.088937
   22 Atom     -1.088899
   23 Atom     -1.097776
   24 Atom     -1.100798
   25 Atom     -1.099679
 -----------------------------------------------------------------
 Leave Link  602 at Thu Jul 04 13:58:13 2019, MaxMem=   209715200 cpu:         2.0
 (Enter C:\G09W\l607.exe)
 ******************************Gaussian NBO Version 3.1******************************
             N A T U R A L   A T O M I C   O R B I T A L   A N D
          N A T U R A L   B O N D   O R B I T A L   A N A L Y S I S
 ******************************Gaussian NBO Version 3.1******************************
       /RESON  / : Allow strongly delocalized NBO set

 Analyzing the SCF density

 Job title: 8i.log                                                          

 Storage needed:    446960 in NPA,    594702 in NBO ( 209713297 available)


 NATURAL POPULATIONS:  Natural atomic orbital occupancies 
                                                          
   NAO  Atom  No  lang   Type(AO)    Occupancy      Energy
 ----------------------------------------------------------
     1    C    1  S      Cor( 1S)     1.99903     -10.04624
     2    C    1  S      Val( 2S)     0.94263      -0.17046
     3    C    1  S      Ryd( 4S)     0.00141       0.91689
     4    C    1  S      Ryd( 3S)     0.00013       0.73648
     5    C    1  S      Ryd( 5S)     0.00001      22.95169
     6    C    1  px     Val( 2p)     1.08599      -0.07792
     7    C    1  px     Ryd( 4p)     0.00417       0.96511
     8    C    1  px     Ryd( 3p)     0.00025       0.44383
     9    C    1  px     Ryd( 5p)     0.00012       3.00966
    10    C    1  py     Val( 2p)     1.01950      -0.11153
    11    C    1  py     Ryd( 4p)     0.00229       0.65370
    12    C    1  py     Ryd( 3p)     0.00034       0.36448
    13    C    1  py     Ryd( 5p)     0.00007       2.81663
    14    C    1  pz     Val( 2p)     1.12644      -0.08391
    15    C    1  pz     Ryd( 4p)     0.00487       1.00619
    16    C    1  pz     Ryd( 3p)     0.00021       0.45996
    17    C    1  pz     Ryd( 5p)     0.00006       2.99250
    18    C    1  dxy    Ryd( 3d)     0.00048       2.04133
    19    C    1  dxz    Ryd( 3d)     0.00075       2.30224
    20    C    1  dyz    Ryd( 3d)     0.00048       2.06787
    21    C    1  dx2y2  Ryd( 3d)     0.00056       2.02066
    22    C    1  dz2    Ryd( 3d)     0.00056       2.08239

    23    C    2  S      Cor( 1S)     1.99890     -10.09296
    24    C    2  S      Val( 2S)     0.83329      -0.13784
    25    C    2  S      Ryd( 4S)     0.00124       0.88874
    26    C    2  S      Ryd( 3S)     0.00014       0.82688
    27    C    2  S      Ryd( 5S)     0.00002      22.86671
    28    C    2  px     Val( 2p)     0.90086      -0.05827
    29    C    2  px     Ryd( 4p)     0.00648       1.25801
    30    C    2  px     Ryd( 3p)     0.00008       0.54066
    31    C    2  px     Ryd( 5p)     0.00011       3.10943
    32    C    2  py     Val( 2p)     1.04661      -0.11797
    33    C    2  py     Ryd( 4p)     0.00394       0.78991
    34    C    2  py     Ryd( 3p)     0.00015       0.51630
    35    C    2  py     Ryd( 5p)     0.00007       2.85085
    36    C    2  pz     Val( 2p)     1.08281      -0.09323
    37    C    2  pz     Ryd( 4p)     0.00346       0.95947
    38    C    2  pz     Ryd( 3p)     0.00025       0.50545
    39    C    2  pz     Ryd( 5p)     0.00019       2.98971
    40    C    2  dxy    Ryd( 3d)     0.00071       2.08176
    41    C    2  dxz    Ryd( 3d)     0.00134       2.36983
    42    C    2  dyz    Ryd( 3d)     0.00057       2.12130
    43    C    2  dx2y2  Ryd( 3d)     0.00086       2.01472
    44    C    2  dz2    Ryd( 3d)     0.00084       2.07991

    45    C    3  S      Cor( 1S)     1.99903     -10.04686
    46    C    3  S      Val( 2S)     0.94244      -0.17087
    47    C    3  S      Ryd( 4S)     0.00151       0.89156
    48    C    3  S      Ryd( 3S)     0.00015       0.59510
    49    C    3  S      Ryd( 5S)     0.00001      23.07427
    50    C    3  px     Val( 2p)     1.08254      -0.07778
    51    C    3  px     Ryd( 4p)     0.00380       0.96465
    52    C    3  px     Ryd( 3p)     0.00027       0.43796
    53    C    3  px     Ryd( 5p)     0.00012       2.99969
    54    C    3  py     Val( 2p)     1.05424      -0.11296
    55    C    3  py     Ryd( 4p)     0.00291       0.77072
    56    C    3  py     Ryd( 3p)     0.00035       0.40784
    57    C    3  py     Ryd( 5p)     0.00003       2.80314
    58    C    3  pz     Val( 2p)     1.09704      -0.08419
    59    C    3  pz     Ryd( 4p)     0.00439       0.93564
    60    C    3  pz     Ryd( 3p)     0.00024       0.40364
    61    C    3  pz     Ryd( 5p)     0.00009       2.96685
    62    C    3  dxy    Ryd( 3d)     0.00059       2.04016
    63    C    3  dxz    Ryd( 3d)     0.00063       2.31292
    64    C    3  dyz    Ryd( 3d)     0.00054       2.03231
    65    C    3  dx2y2  Ryd( 3d)     0.00046       2.01239
    66    C    3  dz2    Ryd( 3d)     0.00059       2.11559

    67    C    4  S      Cor( 1S)     1.99904     -10.04344
    68    C    4  S      Val( 2S)     0.93464      -0.16479
    69    C    4  S      Ryd( 4S)     0.00131       0.93974
    70    C    4  S      Ryd( 3S)     0.00014       0.80954
    71    C    4  S      Ryd( 5S)     0.00001      22.79449
    72    C    4  px     Val( 2p)     1.08169      -0.07449
    73    C    4  px     Ryd( 4p)     0.00421       0.89225
    74    C    4  px     Ryd( 3p)     0.00029       0.42059
    75    C    4  px     Ryd( 5p)     0.00012       3.07455
    76    C    4  py     Val( 2p)     1.03164      -0.10835
    77    C    4  py     Ryd( 4p)     0.00201       0.62080
    78    C    4  py     Ryd( 3p)     0.00030       0.33134
    79    C    4  py     Ryd( 5p)     0.00005       2.84663
    80    C    4  pz     Val( 2p)     1.12873      -0.08207
    81    C    4  pz     Ryd( 4p)     0.00519       0.96722
    82    C    4  pz     Ryd( 3p)     0.00023       0.41314
    83    C    4  pz     Ryd( 5p)     0.00005       3.01376
    84    C    4  dxy    Ryd( 3d)     0.00052       2.04563
    85    C    4  dxz    Ryd( 3d)     0.00068       2.26824
    86    C    4  dyz    Ryd( 3d)     0.00046       2.05353
    87    C    4  dx2y2  Ryd( 3d)     0.00053       2.03096
    88    C    4  dz2    Ryd( 3d)     0.00059       2.05775

    89    C    5  S      Cor( 1S)     1.99903     -10.05982
    90    C    5  S      Val( 2S)     0.88895      -0.15553
    91    C    5  S      Ryd( 4S)     0.00063       0.78690
    92    C    5  S      Ryd( 3S)     0.00012       0.55543
    93    C    5  S      Ryd( 5S)     0.00001      23.26422
    94    C    5  px     Val( 2p)     1.04807      -0.07949
    95    C    5  px     Ryd( 4p)     0.00546       1.19897
    96    C    5  px     Ryd( 3p)     0.00020       0.95131
    97    C    5  px     Ryd( 5p)     0.00007       2.75240
    98    C    5  py     Val( 2p)     1.00475      -0.10219
    99    C    5  py     Ryd( 3p)     0.00224       0.73522
   100    C    5  py     Ryd( 4p)     0.00031       0.85471
   101    C    5  py     Ryd( 5p)     0.00004       2.40336
   102    C    5  pz     Val( 2p)     1.05951      -0.07738
   103    C    5  pz     Ryd( 3p)     0.00287       0.84540
   104    C    5  pz     Ryd( 4p)     0.00037       0.87463
   105    C    5  pz     Ryd( 5p)     0.00009       2.65602
   106    C    5  dxy    Ryd( 3d)     0.00067       2.03166
   107    C    5  dxz    Ryd( 3d)     0.00078       2.36071
   108    C    5  dyz    Ryd( 3d)     0.00053       2.08306
   109    C    5  dx2y2  Ryd( 3d)     0.00058       1.96655
   110    C    5  dz2    Ryd( 3d)     0.00057       2.07232

   111    C    6  S      Cor( 1S)     1.99904     -10.04318
   112    C    6  S      Val( 2S)     0.93496      -0.16428
   113    C    6  S      Ryd( 4S)     0.00123       0.95246
   114    C    6  S      Ryd( 3S)     0.00012       0.82506
   115    C    6  S      Ryd( 5S)     0.00001      22.77092
   116    C    6  px     Val( 2p)     1.07553      -0.07410
   117    C    6  px     Ryd( 4p)     0.00405       0.86505
   118    C    6  px     Ryd( 3p)     0.00027       0.41320
   119    C    6  px     Ryd( 5p)     0.00012       3.06438
   120    C    6  py     Val( 2p)     1.05766      -0.10909
   121    C    6  py     Ryd( 4p)     0.00278       0.72458
   122    C    6  py     Ryd( 3p)     0.00034       0.34004
   123    C    6  py     Ryd( 5p)     0.00003       2.84067
   124    C    6  pz     Val( 2p)     1.11054      -0.08063
   125    C    6  pz     Ryd( 4p)     0.00460       0.88972
   126    C    6  pz     Ryd( 3p)     0.00022       0.39579
   127    C    6  pz     Ryd( 5p)     0.00007       3.02642
   128    C    6  dxy    Ryd( 3d)     0.00054       2.02723
   129    C    6  dxz    Ryd( 3d)     0.00064       2.31116
   130    C    6  dyz    Ryd( 3d)     0.00054       2.01519
   131    C    6  dx2y2  Ryd( 3d)     0.00052       2.00234
   132    C    6  dz2    Ryd( 3d)     0.00057       2.10190

[...]
   121. RY*(   3) C   5                  0.00155     0.70335   
   122. RY*(   4) C   5                  0.00057     1.65464   
   123. RY*(   5) C   5                  0.00044     1.83581   
   124. RY*(   6) C   5                  0.00035     0.88153   
   125. RY*(   7) C   5                  0.00026     1.47525   
   126. RY*(   8) C   5                  0.00015     2.36668   
   127. RY*(   9) C   5                  0.00010     1.39852   
   128. RY*(  10) C   5                  0.00009     2.61395   
   129. RY*(  11) C   5                  0.00005     3.43193   
   130. RY*(  12) C   5                  0.00004     2.97277   
   131. RY*(  13) C   5                  0.00001     1.50662   
   132. RY*(  14) C   5                  0.00000     1.71411   
   133. RY*(  15) C   5                  0.00000     2.18187   
   134. RY*(  16) C   5                  0.00001     1.03484   
   135. RY*(  17) C   5                  0.00000    20.07199   
   136. RY*(   1) C   6                  0.00591     1.07621   
   137. RY*(   2) C   6                  0.00221     1.13300   
   138. RY*(   3) C   6                  0.00082     0.84473   
   139. RY*(   4) C   6                  0.00062     1.29154   
   140. RY*(   5) C   6                  0.00045     1.03652   
   141. RY*(   6) C   6                  0.00013     3.24334   
   142. RY*(   7) C   6                  0.00014     1.60020   
   143. RY*(   8) C   6                  0.00009     2.06915   
   144. RY*(   9) C   6                  0.00007     1.97000   
   145. RY*(  10) C   6                  0.00004     1.33701   
   146. RY*(  11) C   6                  0.00001     0.67135   
   147. RY*(  12) C   6                  0.00002     6.26253   
   148. RY*(  13) C   6                  0.00002     1.20868   
   149. RY*(  14) C   6                  0.00000     2.86580   
   150. RY*(  15) C   6                  0.00001     1.79293   
   151. RY*(  16) C   6                  0.00001     1.27811   
   152. RY*(  17) C   6                  0.00000    17.84547   
   153. RY*(   1) N   7                  0.00660     0.78631   
   154. RY*(   2) N   7                  0.00476     0.80388   
   155. RY*(   3) N   7                  0.00133     0.61349   
   156. RY*(   4) N   7                  0.00075     1.13835   
   157. RY*(   5) N   7                  0.00070     1.34055   
   158. RY*(   6) N   7                  0.00041     1.61154   
   159. RY*(   7) N   7                  0.00024     1.31470   
   160. RY*(   8) N   7                  0.00015     1.38622   
   161. RY*(   9) N   7                  0.00008     1.99562   
   162. RY*(  10) N   7                  0.00006     2.14716   
   163. RY*(  11) N   7                  0.00002     4.08033   
   164. RY*(  12) N   7                  0.00002     2.43147   
   165. RY*(  13) N   7                  0.00002     2.33365   
   166. RY*(  14) N   7                  0.00001     1.73821   
   167. RY*(  15) N   7                  0.00000     3.83208   
   168. RY*(  16) N   7                  0.00000    35.30301   
   169. RY*(  17) N   7                  0.00000     3.83112   
   170. RY*(   1) C   8                  0.00524     1.23756   
   171. RY*(   2) C   8                  0.00379     1.35411   
   172. RY*(   3) C   8                  0.00307     1.26288   
   173. RY*(   4) C   8                  0.00109     1.12545   
   174. RY*(   5) C   8                  0.00099     1.17480   
   175. RY*(   6) C   8                  0.00032     2.16134   
   176. RY*(   7) C   8                  0.00019     1.44903   
   177. RY*(   8) C   8                  0.00019     1.40106   
   178. RY*(   9) C   8                  0.00016     2.60985   
   179. RY*(  10) C   8                  0.00013     2.94520   
   180. RY*(  11) C   8                  0.00006     0.92456   
   181. RY*(  12) C   8                  0.00007     1.02727   
   182. RY*(  13) C   8                  0.00005     5.95511   
   183. RY*(  14) C   8                  0.00003     1.93830   
   184. RY*(  15) C   8                  0.00001     2.61618   
   185. RY*(  16) C   8                  0.00001    16.32484   
   186. RY*(  17) C   8                  0.00001     2.44016   
   187. RY*(   1) C   9                  0.00329     1.05422   
   188. RY*(   2) C   9                  0.00205     1.19022   
   189. RY*(   3) C   9                  0.00108     0.47930   
   190. RY*(   4) C   9                  0.00081     0.91779   
   191. RY*(   5) C   9                  0.00040     1.02804   
   192. RY*(   6) C   9                  0.00028     1.99995   
   193. RY*(   7) C   9                  0.00021     2.64774   
   194. RY*(   8) C   9                  0.00015     1.38176   
   195. RY*(   9) C   9                  0.00008     1.43480   
   196. RY*(  10) C   9                  0.00007     3.15259   
   197. RY*(  11) C   9                  0.00004     1.68162   
   198. RY*(  12) C   9                  0.00003     2.27643   
   199. RY*(  13) C   9                  0.00001     1.88052   
   200. RY*(  14) C   9                  0.00000    20.58547   
   201. RY*(  15) C   9                  0.00001     1.71039   
   202. RY*(  16) C   9                  0.00000     2.72363   
   203. RY*(  17) C   9                  0.00001     1.80484   
   204. RY*(   1) C  10                  0.00439     0.98103   
   205. RY*(   2) C  10                  0.00205     0.88970   
   206. RY*(   3) C  10                  0.00198     1.72887   
   207. RY*(   4) C  10                  0.00074     1.41193   
   208. RY*(   5) C  10                  0.00059     1.20731   
   209. RY*(   6) C  10                  0.00043     1.45808   
   210. RY*(   7) C  10                  0.00023     1.15814   
   211. RY*(   8) C  10                  0.00017     1.64719   
   212. RY*(   9) C  10                  0.00012     2.13898   
   213. RY*(  10) C  10                  0.00008     0.64412   
   214. RY*(  11) C  10                  0.00005     1.64643   
   215. RY*(  12) C  10                  0.00005     2.57572   
   216. RY*(  13) C  10                  0.00002     2.34723   
   217. RY*(  14) C  10                  0.00000    22.01446   
   218. RY*(  15) C  10                  0.00001     1.46336   
   219. RY*(  16) C  10                  0.00000     3.14379   
   220. RY*(  17) C  10                  0.00001     1.09427   
   221. RY*(   1) C  11                  0.01522     1.12351   
   222. RY*(   2) C  11                  0.01106     1.59433   
   223. RY*(   3) C  11                  0.00689     1.59198   
   224. RY*(   4) C  11                  0.00374     1.84664   
   225. RY*(   5) C  11                  0.00258     1.64027   
   226. RY*(   6) C  11                  0.00155     1.51176   
   227. RY*(   7) C  11                  0.00049     1.71394   
   228. RY*(   8) C  11                  0.00031     0.62477   
   229. RY*(   9) C  11                  0.00013     4.71306   
   230. RY*(  10) C  11                  0.00004     1.71717   
   231. RY*(  11) C  11                  0.00001     0.50536   
   232. RY*(  12) C  11                  0.00002     1.24648   
   233. RY*(  13) C  11                  0.00002     3.59516   
   234. RY*(  14) C  11                  0.00000     2.49211   
   235. RY*(  15) C  11                  0.00000    16.49823   
   236. RY*(  16) C  11                  0.00001     2.73998   
   237. RY*(  17) C  11                  0.00001     1.25850   
   238. RY*(   1) O  12                  0.00359     0.44950   
   239. RY*(   2) O  12                  0.00217     0.87856   
   240. RY*(   3) O  12                  0.00123     1.24939   
   241. RY*(   4) O  12                  0.00067     0.66846   
   242. RY*(   5) O  12                  0.00053     1.44601   
   243. RY*(   6) O  12                  0.00021     1.31901   
   244. RY*(   7) O  12                  0.00016     1.24346   
   245. RY*(   8) O  12                  0.00012     2.50549   
   246. RY*(   9) O  12                  0.00006     1.70601   
   247. RY*(  10) O  12                  0.00003     3.13472   
   248. RY*(  11) O  12                  0.00003     3.39448   
   249. RY*(  12) O  12                  0.00001     4.52932   
   250. RY*(  13) O  12                  0.00000    49.32579   
   251. RY*(  14) O  12                  0.00000     4.91055   
   252. RY*(  15) O  12                  0.00001     2.96015   
   253. RY*(  16) O  12                  0.00000     4.76657   
   254. RY*(  17) O  12                  0.00001     3.06983   
   255. RY*(   1) O  13                  0.00298     0.71177   
   256. RY*(   2) O  13                  0.00126     0.63008   
   257. RY*(   3) O  13                  0.00087     1.08366   
   258. RY*(   4) O  13                  0.00012     2.74337   
   259. RY*(   5) O  13                  0.00009     3.92142   
   260. RY*(   6) O  13                  0.00005     1.47469   
   261. RY*(   7) O  13                  0.00003     1.55705   
   262. RY*(   8) O  13                  0.00000     2.38760   
   263. RY*(   9) O  13                  0.00000     3.77827   
   264. RY*(  10) O  13                  0.00000     2.23880   
   265. RY*(  11) O  13                  0.00000     4.92607   
   266. RY*(  12) O  13                  0.00000    49.35719   
   267. RY*(  13) O  13                  0.00000     3.11973   
   268. RY*(  14) O  13                  0.00000     3.12759   
   269. RY*(  15) O  13                  0.00000     2.47276   
   270. RY*(  16) O  13                  0.00001     2.39881   
   271. RY*(  17) O  13                  0.00000     2.67836   
   272. RY*(   1) C  14                  0.00362     0.58914   
   273. RY*(   2) C  14                  0.00083     1.01180   
   274. RY*(   3) C  14                  0.00038     0.58131   
   275. RY*(   4) C  14                  0.00018     2.51199   
   276. RY*(   5) C  14                  0.00008     0.55542   
   277. RY*(   6) C  14                  0.00007     1.31068   
   278. RY*(   7) C  14                  0.00002     1.29377   
   279. RY*(   8) C  14                  0.00000    22.74361   
   280. RY*(   9) C  14                  0.00000     3.06218   
   281. RY*(  10) C  14                  0.00000     1.72863   
   282. RY*(  11) C  14                  0.00000     0.40318   
   283. RY*(  12) C  14                  0.00000     2.93967   
   284. RY*(  13) C  14                  0.00000     1.65782   
   285. RY*(  14) C  14                  0.00001     0.94373   
   286. RY*(  15) C  14                  0.00000     1.92735   
   287. RY*(  16) C  14                  0.00001     1.45510   
   288. RY*(  17) C  14                  0.00001     1.92638   
   289. RY*(   1) H  15                  0.00173     0.50461   
   290. RY*(   2) H  15                  0.00028     2.21243   
   291. RY*(   3) H  15                  0.00021     1.73351   
   292. RY*(   4) H  15                  0.00011     1.78167   
   293. RY*(   5) H  15                  0.00004     0.64388   
   294. RY*(   6) H  15                  0.00004     2.48232   
   295. RY*(   1) H  16                  0.00095     0.79447   
   296. RY*(   2) H  16                  0.00022     1.57291   
   297. RY*(   3) H  16                  0.00019     2.06566   
   298. RY*(   4) H  16                  0.00012     1.84646   
   299. RY*(   5) H  16                  0.00005     1.37523   
   300. RY*(   6) H  16                  0.00003     1.61003   
   301. RY*(   1) H  17                  0.00082     0.77200   
   302. RY*(   2) H  17                  0.00020     2.21540   
   303. RY*(   3) H  17                  0.00019     1.58754   
   304. RY*(   4) H  17                  0.00013     1.70533   
   305. RY*(   5) H  17                  0.00005     0.52078   
   306. RY*(   6) H  17                  0.00004     2.42276   
   307. RY*(   1) H  18                  0.00085     0.77633   
   308. RY*(   2) H  18                  0.00020     2.23798   
   309. RY*(   3) H  18                  0.00019     1.58700   
   310. RY*(   4) H  18                  0.00014     1.65234   
   311. RY*(   5) H  18                  0.00004     2.42852   
   312. RY*(   6) H  18                  0.00005     0.56323   
   313. RY*(   1) H  19                  0.00147     0.49592   
   314. RY*(   2) H  19                  0.00068     1.64571   
   315. RY*(   3) H  19                  0.00036     2.22759   
   316. RY*(   4) H  19                  0.00018     1.97653   
   317. RY*(   5) H  19                  0.00006     0.68393   
   318. RY*(   6) H  19                  0.00004     2.42907   
   319. RY*(   1) H  20                  0.00067     0.84572   
   320. RY*(   2) H  20                  0.00027     2.02721   
   321. RY*(   3) H  20                  0.00016     1.60820   
   322. RY*(   4) H  20                  0.00010     1.78898   
   323. RY*(   5) H  20                  0.00005     0.66431   
   324. RY*(   6) H  20                  0.00003     2.40094   
   325. RY*(   1) H  21                  0.00123     0.67118   
   326. RY*(   2) H  21                  0.00030     1.75176   
   327. RY*(   3) H  21                  0.00014     2.25716   
   328. RY*(   4) H  21                  0.00011     2.21948   
   329. RY*(   5) H  21                  0.00008     0.38774   
   330. RY*(   6) H  21                  0.00008     2.15315   
   331. RY*(   1) H  22                  0.00135     0.63161   
   332. RY*(   2) H  22                  0.00034     1.81066   
   333. RY*(   3) H  22                  0.00013     2.43284   
   334. RY*(   4) H  22                  0.00009     2.07561   
   335. RY*(   5) H  22                  0.00009     1.20083   
   336. RY*(   6) H  22                  0.00006     1.29096   
   337. RY*(   1) H  23                  0.00096     0.64233   
   338. RY*(   2) H  23                  0.00018     1.82390   
   339. RY*(   3) H  23                  0.00014     1.78547   
   340. RY*(   4) H  23                  0.00010     1.12502   
   341. RY*(   5) H  23                  0.00006     1.95775   
   342. RY*(   6) H  23                  0.00003     1.82875   
   343. RY*(   1) H  24                  0.00091     0.64245   
   344. RY*(   2) H  24                  0.00016     1.93016   
   345. RY*(   3) H  24                  0.00012     1.73639   
   346. RY*(   4) H  24                  0.00010     1.20911   
   347. RY*(   5) H  24                  0.00005     1.13714   
   348. RY*(   6) H  24                  0.00002     2.43994   
   349. RY*(   1) H  25                  0.00090     0.63972   
   350. RY*(   2) H  25                  0.00016     1.92630   
   351. RY*(   3) H  25                  0.00012     1.74231   
   352. RY*(   4) H  25                  0.00009     1.17859   
   353. RY*(   5) H  25                  0.00005     1.16969   
   354. RY*(   6) H  25                  0.00002     2.43442   
   355. BD*(   1) C   1 - C   2          0.02655     0.54522   
   356. BD*(   2) C   1 - C   2          0.39274     0.00447  362(v),367(v),53(g),370(v)
                                                    71(g),87(v),371(v)
   357. BD*(   1) C   1 - C   6          0.01377     0.56287   
   358. BD*(   1) C   1 - H  15          0.01337     0.42117   
   359. BD*(   1) C   2 - C   3          0.02488     0.54501   
   360. BD*(   1) C   2 - N   7          0.02961     0.38589   
   361. BD*(   1) C   3 - C   4          0.01357     0.56359   
   362. BD*(   2) C   3 - C   4          0.33062     0.01075  356(v),367(v),105(g),87(g)
                                                    88(g)
   363. BD*(   1) C   3 - H  16          0.01295     0.41433   
   364. BD*(   1) C   4 - C   5          0.02400     0.56316   
   365. BD*(   1) C   4 - H  17          0.01398     0.42309   
   366. BD*(   1) C   5 - C   6          0.02384     0.56478   
   367. BD*(   2) C   5 - C   6          0.34351     0.01992  362(v),356(v),138(g),383(v)
                                                    104(v)
   368. BD*(   1) C   5 - C  14          0.01581     0.40519   
   369. BD*(   1) C   6 - H  18          0.01407     0.42302   
   370. BD*(   1) N   7 - C   8          0.02896     0.46085   
   371. BD*(   1) N   7 - H  19          0.01951     0.36421   
   372. BD*(   1) C   8 - C   9          0.01391     0.61091   
   373. BD*(   2) C   8 - C   9          0.24543     0.01766  382(v),189(g),378(v),379(v)
                                                    181(g)
   374. BD*(   1) C   8 - C  10          0.03268     0.36674   
   375. BD*(   1) C   9 - C  11          0.06042     0.46009   
   376. BD*(   1) C   9 - H  20          0.01282     0.42652   
   377. BD*(   1) C  10 - O  12          0.01418     0.27701   
   378. BD*(   1) C  10 - H  21          0.02298     0.37132   
   379. BD*(   1) C  10 - H  22          0.02285     0.36835   
   380. BD*(   1) C  11 - O  12          0.12324     0.32083  377(g),374(v),376(v),222(g)
                                                    372(v),227(g)
   381. BD*(   1) C  11 - O  13          0.01247     0.65336   
   382. BD*(   2) C  11 - O  13          0.29222     0.02619  373(v),223(g),256(g),268(g)
   383. BD*(   1) C  14 - H  23          0.01047     0.38610   
   384. BD*(   1) C  14 - H  24          0.00514     0.38984   
   385. BD*(   1) C  14 - H  25          0.00559     0.38957   
       -------------------------------
              Total Lewis   97.58208  ( 97.5821%)
        Valence non-Lewis    2.21613  (  2.2161%)
        Rydberg non-Lewis    0.20179  (  0.2018%)
       -------------------------------
            Total unit  1  100.00000  (100.0000%)
           Charge unit  1    0.00000
 Leave Link  607 at Thu Jul 04 15:49:04 2019, MaxMem=   209715200 cpu:         4.0
 (Enter C:\G09W\l9999.exe)
 1|1|UNPC-CCSC-02011910|FOpt|RB3LYP|6-311++G(d,p)|C11H11N1O2|EDUARDO.ME
 LO|04-Jul-2019|0||#p opt b3lyp/6-311++g(d,p) pop=(nbo,chelpg) geom=con
 nectivity||8i.log||0,1|C,1.3251268957,-0.3400826447,-0.9086561476|C,0.
 849975726,0.6772075654,-0.077071089|C,1.727134922,1.2640829221,0.84070
 91469|C,3.0459836455,0.8313756688,0.9291019853|C,3.5264105062,-0.20907
 53184,0.1263762826|C,2.6405326117,-0.7813936406,-0.7916358729|N,-0.477
 7969824,1.169466948,-0.1784823015|C,-1.6366906726,0.4492888692,-0.1750
 802036|C,-2.9071736577,0.9120413851,-0.2099167522|C,-1.6868516707,-1.0
 581627121,-0.0653441749|C,-3.8294742044,-0.2113814414,-0.1097181319|O,
 -3.072720135,-1.3793215828,-0.0186567461|O,-5.0301528964,-0.2453160574
 ,-0.0932381454|C,4.944952499,-0.7064006204,0.2588168027|H,0.6830105366
 ,-0.7640432939,-1.6701583052|H,1.3715336983,2.0568540894,1.4905658688|
 H,3.7092634409,1.3054523561,1.6452161961|H,2.9888093153,-1.5720089307,
 -1.4482319515|H,-0.5850288235,2.1659216171,-0.0564503712|H,-3.24652376
 04,1.9342505862,-0.2757964358|H,-1.2406567297,-1.5653855994,-0.9230288
 866|H,-1.193287169,-1.4139318708,0.8446971124|H,5.0183886335,-1.483582
 862,1.0274057508|H,5.3045777292,-1.1382321003,-0.6777748885|H,5.625341
 5419,0.0994586675,0.5434342581||Version=IA32W-G09RevD.01|State=1-A|HF=
 -631.1698991|RMSD=1.829e-009|RMSF=4.014e-006|Dipole=3.1596813,0.819952
 4,0.0777114|Quadrupole=-16.8817378,9.9018713,6.9798665,-6.8565019,1.20
 61028,2.8829253|PG=C01 [X(C11H11N1O2)]||@


 Once you get people laughing, they're
 listening and you can tell them almost anything.
                                 -- Herb Gardner
 Job cpu time:       0 days  1 hours 56 minutes  5.0 seconds.
 File lengths (MBytes):  RWF=     89 Int=      0 D2E=      0 Chk=     11 Scr=      1
 Normal termination of Gaussian 09 at Thu Jul 04 15:49:04 2019.
