 Entering Link 1 = C:\G09W\l1.exe PID=      1764.
  
 Copyright (c) 1988,1990,1992,1993,1995,1998,2003,2009,2013,
            Gaussian, Inc.  All Rights Reserved.
  
 This is part of the Gaussian(R) 09 program.  It is based on
 the Gaussian(R) 03 system (copyright 2003, Gaussian, Inc.),
 the Gaussian(R) 98 system (copyright 1998, Gaussian, Inc.),
 the Gaussian(R) 94 system (copyright 1995, Gaussian, Inc.),
 the Gaussian 92(TM) system (copyright 1992, Gaussian, Inc.),
 the Gaussian 90(TM) system (copyright 1990, Gaussian, Inc.),
 the Gaussian 88(TM) system (copyright 1988, Gaussian, Inc.),
 the Gaussian 86(TM) system (copyright 1986, Carnegie Mellon
 University), and the Gaussian 82(TM) system (copyright 1983,
 Carnegie Mellon University). Gaussian is a federally registered
 trademark of Gaussian, Inc.
  
 This software contains proprietary and confidential information,
 including trade secrets, belonging to Gaussian, Inc.
  
 This software is provided under written license and may be
 used, copied, transmitted, or stored only in accord with that
 written license.
  
 The following legend is applicable only to US Government
 contracts under FAR:
  
                    RESTRICTED RIGHTS LEGEND
  
 Use, reproduction and disclosure by the US Government is
 subject to restrictions as set forth in subparagraphs (a)
 and (c) of the Commercial Computer Software - Restricted
 Rights clause in FAR 52.227-19.
  
 Gaussian, Inc.
 340 Quinnipiac St., Bldg. 40, Wallingford CT 06492
  
  
 ---------------------------------------------------------------
 Warning -- This program may not be used in any manner that
 competes with the business of Gaussian, Inc. or will provide
 assistance to any competitor of Gaussian, Inc.  The licensee
 of this program is prohibited from giving any competitor of
 Gaussian, Inc. access to this program.  By using this program,
 the user acknowledges that Gaussian, Inc. is engaged in the
 business of creating and licensing software in the field of
 computational chemistry and represents and warrants to the
 licensee that it is not a competitor of Gaussian, Inc. and that
 it will not use this program in any manner prohibited above.
 ---------------------------------------------------------------
  

 Cite this work as:
 Gaussian 09, Revision D.01,
 M. J. Frisch, G. W. Trucks, H. B. Schlegel, G. E. Scuseria, 
 M. A. Robb, J. R. Cheeseman, G. Scalmani, V. Barone, B. Mennucci, 
 G. A. Petersson, H. Nakatsuji, M. Caricato, X. Li, H. P. Hratchian, 
 A. F. Izmaylov, J. Bloino, G. Zheng, J. L. Sonnenberg, M. Hada, 
 M. Ehara, K. Toyota, R. Fukuda, J. Hasegawa, M. Ishida, T. Nakajima, 
 Y. Honda, O. Kitao, H. Nakai, T. Vreven, J. A. Montgomery, Jr., 
 J. E. Peralta, F. Ogliaro, M. Bearpark, J. J. Heyd, E. Brothers, 
 K. N. Kudin, V. N. Staroverov, T. Keith, R. Kobayashi, J. Normand, 
 K. Raghavachari, A. Rendell, J. C. Burant, S. S. Iyengar, J. Tomasi, 
 M. Cossi, N. Rega, J. M. Millam, M. Klene, J. E. Knox, J. B. Cross, 
 V. Bakken, C. Adamo, J. Jaramillo, R. Gomperts, R. E. Stratmann, 
 O. Yazyev, A. J. Austin, R. Cammi, C. Pomelli, J. W. Ochterski, 
 R. L. Martin, K. Morokuma, V. G. Zakrzewski, G. A. Voth, 
 P. Salvador, J. J. Dannenberg, S. Dapprich, A. D. Daniels, 
 O. Farkas, J. B. Foresman, J. V. Ortiz, J. Cioslowski, 
 and D. J. Fox, Gaussian, Inc., Wallingford CT, 2013.
 
 ******************************************
 Gaussian 09:  IA32W-G09RevD.01 24-Apr-2013
                04-Jul-2019 
 ******************************************
 %nprocshared=4
 Will use up to    4 processors via shared memory.
 %mem=1600MB
 -------------------------------------------------------------
 #p opt b3lyp/6-311++g(d,p) pop=(nbo,chelpg) geom=connectivity
 -------------------------------------------------------------
 1/14=-1,18=20,19=15,26=3,38=1,57=2/1,3;
 2/9=110,12=2,17=6,18=5,40=1/2;
 3/5=4,6=6,7=1111,11=2,16=1,25=1,30=1,71=1,74=-5/1,2,3;
 4//1;
 5/5=2,38=5/2;
 6/7=2,8=2,9=2,10=2,15=8,20=3,28=1,40=1/1,2,7;
 7//1,2,3,16;
 1/14=-1,18=20,19=15,26=3/3(2);
 2/9=110/2;
 99//99;
 2/9=110/2;
 3/5=4,6=6,7=1111,11=2,16=1,25=1,30=1,71=1,74=-5/1,2,3;
 4/5=5,16=3,69=1/1;
 5/5=2,38=5/2;
 7//1,2,3,16;
 1/14=-1,18=20,19=15,26=3/3(-5);
 2/9=110/2;
 6/7=2,8=2,9=2,10=2,15=8,19=2,20=3,28=1,40=1/1,2,7;
 99/9=1/99;
 Leave Link    1 at Thu Jul 04 15:49:04 2019, MaxMem=   209715200 cpu:         0.0
 (Enter C:\G09W\l101.exe)
 -------
 9aa.log
 -------
 Symbolic Z-matrix:
 Charge =  0 Multiplicity = 1
 C                     2.01186  -1.18787  -0.93346 
 C                     1.56592  -1.06447   0.37386 
 C                     2.45685  -0.67088   1.35934 
 C                     3.7751   -0.39895   1.03804 
 C                     4.23118  -0.49732  -0.27145 
 C                     3.32759  -0.89552  -1.24934 
 N                     0.21929  -1.37722   0.73991 
 C                    -0.86764  -0.90435   0.06759 
 C                    -2.06081  -1.47005  -0.08077 
 C                    -0.94077   0.48742  -0.52564 
 C                    -2.96257  -0.54661  -0.77898 
 O                    -2.24664   0.55944  -1.05385 
 Cl                   -2.5473   -3.02826   0.45502 
 O                    -4.08975  -0.6855   -1.09438 
 C                    -0.71522   1.59424   0.5159 
 C                    -1.04837   2.99719  -0.00939 
 O                    -1.51478   1.36835   1.64345 
 C                     5.66053  -0.16097  -0.62478 
 C                    -0.34712   3.31299  -1.33482 
 C                    -0.69691   4.04699   1.04927 
 H                    -0.23874   0.60028  -1.34026 
 H                     0.33978   1.56368   0.78488 
 H                     1.33664  -1.52385  -1.70089 
 H                     2.11423  -0.58107   2.37481 
 H                     4.45409  -0.09968   1.81746 
 H                     3.65566  -0.9943   -2.26951 
 H                     0.09198  -2.29106   1.12055 
 H                    -2.12089   3.018    -0.17212 
 H                    -1.15359   0.67658   2.17289 
 H                     6.00136  -0.73955  -1.47577 
 H                     5.75796   0.89052  -0.88109 
 H                     6.3279   -0.36014   0.20584 
 H                     0.73058   3.18161  -1.2574 
 H                    -0.70998   2.69513  -2.14843 
 H                    -0.52809   4.34594  -1.61223 
 H                     0.37616   4.07677   1.22869 
 H                    -1.00103   5.03445   0.7163 
 H                    -1.19327   3.83836   1.98767 
 
 NAtoms=     38 NQM=       38 NQMF=       0 NMMI=      0 NMMIF=      0
                NMic=       0 NMicF=      0.
                    Isotopes and Nuclear Properties:
 (Nuclear quadrupole moments (NQMom) in fm**2, nuclear magnetic moments (NMagM)
  in nuclear magnetons)

  Atom         1           2           3           4           5           6           7           8           9          10
 IAtWgt=          12          12          12          12          12          12          14          12          12          12
 AtmWgt=  12.0000000  12.0000000  12.0000000  12.0000000  12.0000000  12.0000000  14.0030740  12.0000000  12.0000000  12.0000000
 NucSpn=           0           0           0           0           0           0           2           0           0           0
 AtZEff=   0.0000000   0.0000000   0.0000000   0.0000000   0.0000000   0.0000000   0.0000000   0.0000000   0.0000000   0.0000000
 NQMom=    0.0000000   0.0000000   0.0000000   0.0000000   0.0000000   0.0000000   2.0440000   0.0000000   0.0000000   0.0000000
 NMagM=    0.0000000   0.0000000   0.0000000   0.0000000   0.0000000   0.0000000   0.4037610   0.0000000   0.0000000   0.0000000
 AtZNuc=   6.0000000   6.0000000   6.0000000   6.0000000   6.0000000   6.0000000   7.0000000   6.0000000   6.0000000   6.0000000

  Atom        11          12          13          14          15          16          17          18          19          20
 IAtWgt=          12          16          35          16          12          12          16          12          12          12
 AtmWgt=  12.0000000  15.9949146  34.9688527  15.9949146  12.0000000  12.0000000  15.9949146  12.0000000  12.0000000  12.0000000
 NucSpn=           0           0           3           0           0           0           0           0           0           0
 AtZEff=   0.0000000   0.0000000   0.0000000   0.0000000   0.0000000   0.0000000   0.0000000   0.0000000   0.0000000   0.0000000
 NQMom=    0.0000000   0.0000000  -8.1650000   0.0000000   0.0000000   0.0000000   0.0000000   0.0000000   0.0000000   0.0000000
 NMagM=    0.0000000   0.0000000   0.8218740   0.0000000   0.0000000   0.0000000   0.0000000   0.0000000   0.0000000   0.0000000
 AtZNuc=   6.0000000   8.0000000  17.0000000   8.0000000   6.0000000   6.0000000   8.0000000   6.0000000   6.0000000   6.0000000

  Atom        21          22          23          24          25          26          27          28          29          30
 IAtWgt=           1           1           1           1           1           1           1           1           1           1
 AtmWgt=   1.0078250   1.0078250   1.0078250   1.0078250   1.0078250   1.0078250   1.0078250   1.0078250   1.0078250   1.0078250
 NucSpn=           1           1           1           1           1           1           1           1           1           1
 AtZEff=   0.0000000   0.0000000   0.0000000   0.0000000   0.0000000   0.0000000   0.0000000   0.0000000   0.0000000   0.0000000
 NQMom=    0.0000000   0.0000000   0.0000000   0.0000000   0.0000000   0.0000000   0.0000000   0.0000000   0.0000000   0.0000000
 NMagM=    2.7928460   2.7928460   2.7928460   2.7928460   2.7928460   2.7928460   2.7928460   2.7928460   2.7928460   2.7928460
 AtZNuc=   1.0000000   1.0000000   1.0000000   1.0000000   1.0000000   1.0000000   1.0000000   1.0000000   1.0000000   1.0000000

  Atom        31          32          33          34          35          36          37          38
 IAtWgt=           1           1           1           1           1           1           1           1
 AtmWgt=   1.0078250   1.0078250   1.0078250   1.0078250   1.0078250   1.0078250   1.0078250   1.0078250
 NucSpn=           1           1           1           1           1           1           1           1
 AtZEff=   0.0000000   0.0000000   0.0000000   0.0000000   0.0000000   0.0000000   0.0000000   0.0000000
 NQMom=    0.0000000   0.0000000   0.0000000   0.0000000   0.0000000   0.0000000   0.0000000   0.0000000
 NMagM=    2.7928460   2.7928460   2.7928460   2.7928460   2.7928460   2.7928460   2.7928460   2.7928460
 AtZNuc=   1.0000000   1.0000000   1.0000000   1.0000000   1.0000000   1.0000000   1.0000000   1.0000000
 Leave Link  101 at Thu Jul 04 15:49:04 2019, MaxMem=   209715200 cpu:         0.0
 (Enter C:\G09W\l103.exe)

 GradGradGradGradGradGradGradGradGradGradGradGradGradGradGradGradGradGrad
 Berny optimization.
 Initialization pass.
                           ----------------------------
                           !    Initial Parameters    !
                           ! (Angstroms and Degrees)  !
 --------------------------                            --------------------------
 ! Name  Definition              Value          Derivative Info.                !
 --------------------------------------------------------------------------------
 ! R1    R(1,2)                  1.3868         estimate D2E/DX2                !
 ! R2    R(1,6)                  1.3843         estimate D2E/DX2                !
 ! R3    R(1,23)                 1.076          estimate D2E/DX2                !
 ! R4    R(2,3)                  1.3856         estimate D2E/DX2                !
 ! R5    R(2,7)                  1.4301         estimate D2E/DX2                !
 ! R6    R(3,4)                  1.3838         estimate D2E/DX2                !
 ! R7    R(3,24)                 1.0755         estimate D2E/DX2                !
 ! R8    R(4,5)                  1.3901         estimate D2E/DX2                !
 ! R9    R(4,25)                 1.0761         estimate D2E/DX2                !
 ! R10   R(5,6)                  1.3897         estimate D2E/DX2                !
 ! R11   R(5,18)                 1.5103         estimate D2E/DX2                !
 ! R12   R(6,26)                 1.0762         estimate D2E/DX2                !
 ! R13   R(7,8)                  1.3627         estimate D2E/DX2                !
 ! R14   R(7,27)                 0.9981         estimate D2E/DX2                !
 ! R15   R(8,9)                  1.3288         estimate D2E/DX2                !
 ! R16   R(8,10)                 1.5147         estimate D2E/DX2                !
 ! R17   R(9,11)                 1.4674         estimate D2E/DX2                !
 ! R18   R(9,13)                 1.7181         estimate D2E/DX2                !
 ! R19   R(10,12)                1.4105         estimate D2E/DX2                !
 ! R20   R(10,15)                1.5365         estimate D2E/DX2                !
 ! R21   R(10,21)                1.0813         estimate D2E/DX2                !
 ! R22   R(11,12)                1.3459         estimate D2E/DX2                !
 ! R23   R(11,14)                1.1787         estimate D2E/DX2                !
 ! R24   R(15,16)                1.5347         estimate D2E/DX2                !
 ! R25   R(15,17)                1.4006         estimate D2E/DX2                !
 ! R26   R(15,22)                1.0892         estimate D2E/DX2                !
 ! R27   R(16,19)                1.5324         estimate D2E/DX2                !
 ! R28   R(16,20)                1.5318         estimate D2E/DX2                !
 ! R29   R(16,28)                1.085          estimate D2E/DX2                !
 ! R30   R(17,29)                0.943          estimate D2E/DX2                !
 ! R31   R(18,30)                1.084          estimate D2E/DX2                !
 ! R32   R(18,31)                1.0866         estimate D2E/DX2                !
 ! R33   R(18,32)                1.084          estimate D2E/DX2                !
 ! R34   R(19,33)                1.0884         estimate D2E/DX2                !
 ! R35   R(19,34)                1.0842         estimate D2E/DX2                !
 ! R36   R(19,35)                1.0848         estimate D2E/DX2                !
 ! R37   R(20,36)                1.0884         estimate D2E/DX2                !
 ! R38   R(20,37)                1.0855         estimate D2E/DX2                !
 ! R39   R(20,38)                1.0819         estimate D2E/DX2                !
 ! A1    A(2,1,6)              120.1285         estimate D2E/DX2                !
 ! A2    A(2,1,23)             119.8911         estimate D2E/DX2                !
 ! A3    A(6,1,23)             119.9756         estimate D2E/DX2                !
 ! A4    A(1,2,3)              119.2742         estimate D2E/DX2                !
 ! A5    A(1,2,7)              121.6431         estimate D2E/DX2                !
 ! A6    A(3,2,7)              119.0479         estimate D2E/DX2                !
 ! A7    A(2,3,4)              120.213          estimate D2E/DX2                !
 ! A8    A(2,3,24)             119.3688         estimate D2E/DX2                !
 ! A9    A(4,3,24)             120.418          estimate D2E/DX2                !
 ! A10   A(3,4,5)              121.1546         estimate D2E/DX2                !
 ! A11   A(3,4,25)             119.1784         estimate D2E/DX2                !
 ! A12   A(5,4,25)             119.6655         estimate D2E/DX2                !
 ! A13   A(4,5,6)              118.0213         estimate D2E/DX2                !
 ! A14   A(4,5,18)             121.0052         estimate D2E/DX2                !
 ! A15   A(6,5,18)             120.9668         estimate D2E/DX2                !
 ! A16   A(1,6,5)              121.1932         estimate D2E/DX2                !
 ! A17   A(1,6,26)             119.1216         estimate D2E/DX2                !
 ! A18   A(5,6,26)             119.6787         estimate D2E/DX2                !
 ! A19   A(2,7,8)              123.2905         estimate D2E/DX2                !
 ! A20   A(2,7,27)             114.7047         estimate D2E/DX2                !
 ! A21   A(8,7,27)             113.8364         estimate D2E/DX2                !
 ! A22   A(7,8,9)              128.5764         estimate D2E/DX2                !
 ! A23   A(7,8,10)             123.4069         estimate D2E/DX2                !
 ! A24   A(9,8,10)             107.7036         estimate D2E/DX2                !
 ! A25   A(8,9,11)             109.695          estimate D2E/DX2                !
 ! A26   A(8,9,13)             127.2692         estimate D2E/DX2                !
 ! A27   A(11,9,13)            123.0315         estimate D2E/DX2                !
 ! A28   A(8,10,12)            103.7854         estimate D2E/DX2                !
 ! A29   A(8,10,15)            112.9126         estimate D2E/DX2                !
 ! A30   A(8,10,21)            111.0765         estimate D2E/DX2                !
 ! A31   A(12,10,15)           110.6698         estimate D2E/DX2                !
 ! A32   A(12,10,21)           108.2788         estimate D2E/DX2                !
 ! A33   A(15,10,21)           109.8893         estimate D2E/DX2                !
 ! A34   A(9,11,12)            106.7044         estimate D2E/DX2                !
 ! A35   A(9,11,14)            129.8537         estimate D2E/DX2                !
 ! A36   A(12,11,14)           123.4263         estimate D2E/DX2                !
 ! A37   A(10,12,11)           111.9645         estimate D2E/DX2                !
 ! A38   A(10,15,16)           113.2441         estimate D2E/DX2                !
 ! A39   A(10,15,17)           110.2271         estimate D2E/DX2                !
 ! A40   A(10,15,22)           106.8209         estimate D2E/DX2                !
 ! A41   A(16,15,17)           107.4018         estimate D2E/DX2                !
 ! A42   A(16,15,22)           108.6902         estimate D2E/DX2                !
 ! A43   A(17,15,22)           110.4639         estimate D2E/DX2                !
 ! A44   A(15,16,19)           112.6505         estimate D2E/DX2                !
 ! A45   A(15,16,20)           109.8865         estimate D2E/DX2                !
 ! A46   A(15,16,28)           106.4663         estimate D2E/DX2                !
 ! A47   A(19,16,20)           110.5822         estimate D2E/DX2                !
 ! A48   A(19,16,28)           108.5831         estimate D2E/DX2                !
 ! A49   A(20,16,28)           108.5005         estimate D2E/DX2                !
 ! A50   A(15,17,29)           110.587          estimate D2E/DX2                !
 ! A51   A(5,18,30)            111.2441         estimate D2E/DX2                !
 ! A52   A(5,18,31)            110.8265         estimate D2E/DX2                !
 ! A53   A(5,18,32)            111.2528         estimate D2E/DX2                !
 ! A54   A(30,18,31)           107.6448         estimate D2E/DX2                !
 ! A55   A(30,18,32)           108.0534         estimate D2E/DX2                !
 ! A56   A(31,18,32)           107.6582         estimate D2E/DX2                !
 ! A57   A(16,19,33)           111.5125         estimate D2E/DX2                !
 ! A58   A(16,19,34)           112.2403         estimate D2E/DX2                !
 ! A59   A(16,19,35)           109.9428         estimate D2E/DX2                !
 ! A60   A(33,19,34)           108.4205         estimate D2E/DX2                !
 ! A61   A(33,19,35)           107.3569         estimate D2E/DX2                !
 ! A62   A(34,19,35)           107.1534         estimate D2E/DX2                !
 ! A63   A(16,20,36)           111.0327         estimate D2E/DX2                !
 ! A64   A(16,20,37)           110.3131         estimate D2E/DX2                !
 ! A65   A(16,20,38)           111.2255         estimate D2E/DX2                !
 ! A66   A(36,20,37)           107.571          estimate D2E/DX2                !
 ! A67   A(36,20,38)           108.3378         estimate D2E/DX2                !
 ! A68   A(37,20,38)           108.2358         estimate D2E/DX2                !
 ! D1    D(6,1,2,3)             -1.2033         estimate D2E/DX2                !
 ! D2    D(6,1,2,7)           -179.0397         estimate D2E/DX2                !
 ! D3    D(23,1,2,3)           177.9997         estimate D2E/DX2                !
 ! D4    D(23,1,2,7)             0.1632         estimate D2E/DX2                !
 ! D5    D(2,1,6,5)              1.1026         estimate D2E/DX2                !
 ! D6    D(2,1,6,26)          -179.8361         estimate D2E/DX2                !
 ! D7    D(23,1,6,5)          -178.0997         estimate D2E/DX2                !
 ! D8    D(23,1,6,26)            0.9616         estimate D2E/DX2                !
 ! D9    D(1,2,3,4)              0.2841         estimate D2E/DX2                !
 ! D10   D(1,2,3,24)          -179.593          estimate D2E/DX2                !
 ! D11   D(7,2,3,4)            178.1772         estimate D2E/DX2                !
 ! D12   D(7,2,3,24)            -1.6999         estimate D2E/DX2                !
 ! D13   D(1,2,7,8)            -49.1253         estimate D2E/DX2                !
 ! D14   D(1,2,7,27)            97.4133         estimate D2E/DX2                !
 ! D15   D(3,2,7,8)            133.0335         estimate D2E/DX2                !
 ! D16   D(3,2,7,27)           -80.4279         estimate D2E/DX2                !
 ! D17   D(2,3,4,5)              0.7656         estimate D2E/DX2                !
 ! D18   D(2,3,4,25)          -179.6708         estimate D2E/DX2                !
 ! D19   D(24,3,4,5)          -179.3587         estimate D2E/DX2                !
 ! D20   D(24,3,4,25)            0.205          estimate D2E/DX2                !
 ! D21   D(3,4,5,6)             -0.8689         estimate D2E/DX2                !
 ! D22   D(3,4,5,18)           178.2028         estimate D2E/DX2                !
 ! D23   D(25,4,5,6)           179.5696         estimate D2E/DX2                !
 ! D24   D(25,4,5,18)           -1.3587         estimate D2E/DX2                !
 ! D25   D(4,5,6,1)             -0.0638         estimate D2E/DX2                !
 ! D26   D(4,5,6,26)          -179.12           estimate D2E/DX2                !
 ! D27   D(18,5,6,1)          -179.136          estimate D2E/DX2                !
 ! D28   D(18,5,6,26)            1.8079         estimate D2E/DX2                !
 ! D29   D(4,5,18,30)          150.2765         estimate D2E/DX2                !
 ! D30   D(4,5,18,31)          -89.9989         estimate D2E/DX2                !
 ! D31   D(4,5,18,32)           29.7482         estimate D2E/DX2                !
 ! D32   D(6,5,18,30)          -30.6792         estimate D2E/DX2                !
 ! D33   D(6,5,18,31)           89.0454         estimate D2E/DX2                !
 ! D34   D(6,5,18,32)         -151.2075         estimate D2E/DX2                !
 ! D35   D(2,7,8,9)            150.3256         estimate D2E/DX2                !
 ! D36   D(2,7,8,10)           -36.9121         estimate D2E/DX2                !
 ! D37   D(27,7,8,9)             3.5295         estimate D2E/DX2                !
 ! D38   D(27,7,8,10)          176.2919         estimate D2E/DX2                !
 ! D39   D(7,8,9,11)           174.8711         estimate D2E/DX2                !
 ! D40   D(7,8,9,13)            -4.3799         estimate D2E/DX2                !
 ! D41   D(10,8,9,11)            1.2094         estimate D2E/DX2                !
 ! D42   D(10,8,9,13)         -178.0417         estimate D2E/DX2                !
 ! D43   D(7,8,10,12)         -177.1412         estimate D2E/DX2                !
 ! D44   D(7,8,10,15)          -57.2545         estimate D2E/DX2                !
 ! D45   D(7,8,10,21)           66.7131         estimate D2E/DX2                !
 ! D46   D(9,8,10,12)           -3.0756         estimate D2E/DX2                !
 ! D47   D(9,8,10,15)          116.8112         estimate D2E/DX2                !
 ! D48   D(9,8,10,21)         -119.2213         estimate D2E/DX2                !
 ! D49   D(8,9,11,12)            1.2219         estimate D2E/DX2                !
 ! D50   D(8,9,11,14)          179.7966         estimate D2E/DX2                !
 ! D51   D(13,9,11,12)        -179.4891         estimate D2E/DX2                !
 ! D52   D(13,9,11,14)          -0.9143         estimate D2E/DX2                !
 ! D53   D(8,10,12,11)           3.979          estimate D2E/DX2                !
 ! D54   D(15,10,12,11)       -117.4215         estimate D2E/DX2                !
 ! D55   D(21,10,12,11)        122.0781         estimate D2E/DX2                !
 ! D56   D(8,10,15,16)        -169.0323         estimate D2E/DX2                !
 ! D57   D(8,10,15,17)         -48.6915         estimate D2E/DX2                !
 ! D58   D(8,10,15,22)          71.351          estimate D2E/DX2                !
 ! D59   D(12,10,15,16)        -53.1861         estimate D2E/DX2                !
 ! D60   D(12,10,15,17)         67.1547         estimate D2E/DX2                !
 ! D61   D(12,10,15,22)       -172.8028         estimate D2E/DX2                !
 ! D62   D(21,10,15,16)         66.3499         estimate D2E/DX2                !
 ! D63   D(21,10,15,17)       -173.3093         estimate D2E/DX2                !
 ! D64   D(21,10,15,22)        -53.2668         estimate D2E/DX2                !
 ! D65   D(9,11,12,10)          -3.3632         estimate D2E/DX2                !
 ! D66   D(14,11,12,10)        177.9478         estimate D2E/DX2                !
 ! D67   D(10,15,16,19)        -51.947          estimate D2E/DX2                !
 ! D68   D(10,15,16,20)       -175.729          estimate D2E/DX2                !
 ! D69   D(10,15,16,28)         66.9623         estimate D2E/DX2                !
 ! D70   D(17,15,16,19)       -173.8813         estimate D2E/DX2                !
 ! D71   D(17,15,16,20)         62.3366         estimate D2E/DX2                !
 ! D72   D(17,15,16,28)        -54.9721         estimate D2E/DX2                !
 ! D73   D(22,15,16,19)         66.5933         estimate D2E/DX2                !
 ! D74   D(22,15,16,20)        -57.1887         estimate D2E/DX2                !
 ! D75   D(22,15,16,28)       -174.4974         estimate D2E/DX2                !
 ! D76   D(10,15,17,29)         75.9529         estimate D2E/DX2                !
 ! D77   D(16,15,17,29)       -160.2508         estimate D2E/DX2                !
 ! D78   D(22,15,17,29)        -41.8656         estimate D2E/DX2                !
 ! D79   D(15,16,19,33)        -55.1311         estimate D2E/DX2                !
 ! D80   D(15,16,19,34)         66.7478         estimate D2E/DX2                !
 ! D81   D(15,16,19,35)       -174.0868         estimate D2E/DX2                !
 ! D82   D(20,16,19,33)         68.2648         estimate D2E/DX2                !
 ! D83   D(20,16,19,34)       -169.8562         estimate D2E/DX2                !
 ! D84   D(20,16,19,35)        -50.6909         estimate D2E/DX2                !
 ! D85   D(28,16,19,33)       -172.7983         estimate D2E/DX2                !
 ! D86   D(28,16,19,34)        -50.9193         estimate D2E/DX2                !
 ! D87   D(28,16,19,35)         68.246          estimate D2E/DX2                !
 ! D88   D(15,16,20,36)         65.2457         estimate D2E/DX2                !
 ! D89   D(15,16,20,37)       -175.5961         estimate D2E/DX2                !
 ! D90   D(15,16,20,38)        -55.4813         estimate D2E/DX2                !
 ! D91   D(19,16,20,36)        -59.7343         estimate D2E/DX2                !
 ! D92   D(19,16,20,37)         59.4239         estimate D2E/DX2                !
 ! D93   D(19,16,20,38)        179.5387         estimate D2E/DX2                !
 ! D94   D(28,16,20,36)       -178.7213         estimate D2E/DX2                !
 ! D95   D(28,16,20,37)        -59.563          estimate D2E/DX2                !
 ! D96   D(28,16,20,38)         60.5517         estimate D2E/DX2                !
 --------------------------------------------------------------------------------
 Trust Radius=3.00D-01 FncErr=1.00D-07 GrdErr=1.00D-06
 Number of steps in this run=    213 maximum allowed number of steps=    228.
 GradGradGradGradGradGradGradGradGradGradGradGradGradGradGradGradGradGrad

 Leave Link  103 at Thu Jul 04 15:49:04 2019, MaxMem=   209715200 cpu:         0.0
 (Enter C:\G09W\l202.exe)
                          Input orientation:                          
 ---------------------------------------------------------------------
 Center     Atomic      Atomic             Coordinates (Angstroms)
 Number     Number       Type             X           Y           Z
 ---------------------------------------------------------------------
      1          6           0        2.011860   -1.187871   -0.933460
      2          6           0        1.565919   -1.064474    0.373862
      3          6           0        2.456854   -0.670879    1.359341
      4          6           0        3.775100   -0.398952    1.038042
      5          6           0        4.231181   -0.497323   -0.271450
      6          6           0        3.327590   -0.895521   -1.249338
      7          7           0        0.219285   -1.377220    0.739913
      8          6           0       -0.867638   -0.904349    0.067591
      9          6           0       -2.060805   -1.470049   -0.080769
     10          6           0       -0.940772    0.487419   -0.525641
     11          6           0       -2.962566   -0.546614   -0.778980
     12          8           0       -2.246644    0.559440   -1.053848
     13         17           0       -2.547304   -3.028263    0.455019
     14          8           0       -4.089747   -0.685496   -1.094385
     15          6           0       -0.715223    1.594240    0.515898
     16          6           0       -1.048366    2.997190   -0.009393
     17          8           0       -1.514781    1.368350    1.643449
     18          6           0        5.660530   -0.160965   -0.624781
     19          6           0       -0.347115    3.312987   -1.334823
     20          6           0       -0.696913    4.046994    1.049266
     21          1           0       -0.238735    0.600275   -1.340264
     22          1           0        0.339775    1.563675    0.784875
     23          1           0        1.336636   -1.523849   -1.700893
     24          1           0        2.114229   -0.581065    2.374809
     25          1           0        4.454087   -0.099681    1.817464
     26          1           0        3.655660   -0.994300   -2.269511
     27          1           0        0.091980   -2.291057    1.120545
     28          1           0       -2.120887    3.017998   -0.172120
     29          1           0       -1.153588    0.676577    2.172886
     30          1           0        6.001356   -0.739552   -1.475768
     31          1           0        5.757961    0.890517   -0.881086
     32          1           0        6.327900   -0.360139    0.205838
     33          1           0        0.730575    3.181610   -1.257401
     34          1           0       -0.709978    2.695127   -2.148434
     35          1           0       -0.528094    4.345940   -1.612228
     36          1           0        0.376160    4.076773    1.228690
     37          1           0       -1.001030    5.034446    0.716300
     38          1           0       -1.193271    3.838362    1.987674
 ---------------------------------------------------------------------
                    Distance matrix (angstroms):
                    1          2          3          4          5
     1  C    0.000000
     2  C    1.386788   0.000000
     3  C    2.392120   1.385587   0.000000
     4  C    2.760114   2.400945   1.383817   0.000000
     5  C    2.416713   2.800305   2.416162   1.390128   0.000000
     6  C    1.384338   2.401418   2.759321   2.383055   1.389713
     7  N    2.459544   1.430114   2.426793   3.699961   4.229939
     8  C    3.061698   2.457975   3.574265   4.769928   5.126263
     9  C    4.170528   3.677541   4.808517   6.037945   6.369587
    10  C    3.419203   3.082366   4.054463   5.046802   5.270999
    11  C    5.017967   4.701532   5.827347   6.979937   7.211797
    12  O    4.604611   4.383046   5.427712   6.446388   6.609925
    13  Cl   5.108903   4.558690   5.605056   6.872116   7.271951
    14  O    6.124368   5.855419   6.991350   8.153844   8.363640
    15  C    4.156653   3.506072   3.988011   4.940491   5.427842
    16  C    5.266272   4.845460   5.254972   5.991388   6.336711
    17  O    5.060822   4.125675   4.473596   5.610055   6.337480
    18  C    3.802974   4.310389   3.802669   2.525166   1.510304
    19  C    5.097409   5.073605   5.567041   6.033377   6.050621
    20  C    6.218719   5.630602   5.683372   6.305986   6.832365
    21  H    2.903125   2.994394   4.021181   4.771338   4.725170
    22  H    3.649596   2.929083   3.131336   3.964525   4.528419
    23  H    1.075994   2.137336   3.368602   3.835787   3.387544
    24  H    3.365017   2.130286   1.075469   2.139767   3.389865
    25  H    3.836172   3.369915   2.127224   1.076144   2.138076
    26  H    2.127106   3.370365   3.835401   3.362828   2.137863
    27  H    3.020248   2.057799   2.876566   4.141526   4.721029
    28  H    5.945466   5.527858   6.075269   6.921178   7.260586
    29  H    4.810989   3.696412   3.938627   5.170745   6.028976
    30  H    4.051070   4.816618   4.539389   3.375124   2.154664
    31  H    4.284357   4.792713   4.284248   3.045902   2.151468
    32  H    4.539972   4.816719   4.051188   2.685304   2.154728
    33  H    4.564975   4.624721   4.966795   5.230546   5.173093
    34  H    4.895124   5.067177   5.802009   6.312122   6.174938
    35  H    6.126594   6.132049   6.550466   6.932201   6.921386
    36  H    5.921730   5.345903   5.185225   5.623278   6.167168
    37  H    7.107492   6.625958   6.702328   7.241322   7.678030
    38  H    6.638442   5.852804   5.835364   6.598586   7.302499
                    6          7          8          9         10
     6  C    0.000000
     7  N    3.721655   0.000000
     8  C    4.397081   1.362727   0.000000
     9  C    5.543504   2.425066   1.328787   0.000000
    10  C    4.544796   2.534608   1.514692   2.298710   0.000000
    11  C    6.317360   3.622308   2.287658   1.467448   2.284963
    12  O    5.764305   3.612345   2.302599   2.258372   1.410493
    13  Cl   6.478256   3.234366   2.735396   1.718075   3.987814
    14  O    7.421928   4.734014   3.432211   2.399906   3.408114
    15  C    5.065501   3.122989   2.543060   3.399481   1.536466
    16  C    5.986623   4.615611   3.906481   4.581086   2.564574
    17  O    6.077984   3.370685   2.840296   3.365647   2.410493
    18  C    2.524332   5.740106   6.606737   7.850393   6.633809
    19  C    5.587692   5.159785   4.474777   5.233242   2.998506
    20  C    6.775593   5.509738   5.050607   5.794389   3.900048
    21  H    3.868378   2.906442   2.154407   3.031915   1.081297
    22  H    4.371808   2.943706   2.839628   3.964291   2.124989
    23  H    2.136023   2.688402   2.893119   3.764346   3.257760
    24  H    3.834784   2.626321   3.784085   4.924537   4.345952
    25  H    3.362682   4.552666   5.659532   6.922790   5.910950
    26  H    1.076169   4.583878   5.092186   6.139617   5.134565
    27  H    4.246532   0.998091   1.988099   2.598402   3.390639
    28  H    6.794257   5.062228   4.124670   4.489379   2.814512
    29  H    5.853552   2.855919   2.648275   3.241914   2.713507
    30  H    2.687866   6.224806   7.042173   8.214505   7.113462
    31  H    3.038461   6.200581   6.929653   8.206454   6.720257
    32  H    3.377282   6.215695   7.217413   8.466665   7.354387
    33  H    4.833999   5.003360   4.583116   5.551054   3.253850
    34  H    5.477507   5.078394   4.229876   4.842382   2.749672
    35  H    6.516970   6.232632   5.522917   6.206472   4.029784
    36  H    6.290888   5.478098   5.263721   6.198445   4.206596
    37  H    7.600342   6.526805   5.975609   6.638290   4.713969
    38  H    7.302471   5.545676   5.126994   5.762838   4.196347
                   11         12         13         14         15
    11  C    0.000000
    12  O    1.345902   0.000000
    13  Cl   2.802459   3.903676   0.000000
    14  O    1.178688   2.224531   3.204425   0.000000
    15  C    3.363111   2.424905   4.972702   4.379226   0.000000
    16  C    4.100606   2.910220   6.226442   4.897896   1.534661
    17  O    3.410474   2.909531   4.669976   4.283044   1.400604
    18  C    8.633093   7.951508   8.761045   9.775662   6.710598
    19  C    4.695324   3.356960   6.946641   5.482059   2.552403
    20  C    5.438465   4.357498   7.337325   6.205080   2.510143
    21  H    3.008264   2.028645   4.660345   4.067426   2.158783
    22  H    4.219528   3.328506   5.434144   5.311408   1.089176
    23  H    4.504226   4.195075   4.690012   5.524158   4.341286
    24  H    5.976740   5.663361   5.603951   7.108835   4.024090
    25  H    7.870706   7.319745   7.710533   9.045393   5.593318
    26  H    6.798751   6.223274   7.073672   7.840128   5.793415
    27  H    3.997690   4.280477   2.819968   4.997057   4.014064
    28  H    3.712568   2.614912   6.093637   4.294514   2.115738
    29  H    3.671799   3.408857   4.315015   4.599058   1.944191
    30  H    8.993033   8.360317   9.057909  10.098452   7.384155
    31  H    8.838742   8.013311   9.280056   9.975303   6.659497
    32  H    9.344378   8.715230   9.270934  10.503514   7.315826
    33  H    5.269519   3.972536   7.227683   6.181957   2.784720
    34  H    4.178330   2.849670   6.550643   4.895148   2.882819
    35  H    5.527933   4.195567   7.920201   6.186185   3.483646
    36  H    6.045952   4.945777   7.721836   6.929662   2.803954
    37  H    6.101780   4.970981   8.213800   6.748073   3.457870
    38  H    5.478393   4.594756   7.164703   6.193057   2.725938
                   16         17         18         19         20
    16  C    0.000000
    17  O    2.366971   0.000000
    18  C    7.440560   7.679112   0.000000
    19  C    1.532399   3.743683   6.975980   0.000000
    20  C    1.531785   2.863057   7.805539   2.518929   0.000000
    21  H    2.858657   3.334783   5.991054   2.714882   4.218963
    22  H    2.147734   2.052968   5.768184   2.832848   2.703978
    23  H    5.384162   5.261180   4.659563   5.134589   6.537047
    24  H    5.337634   4.183876   4.663719   5.914662   5.574811
    25  H    6.573051   6.149210   2.724669   6.680925   6.657165
    26  H    6.570235   6.901220   2.723800   5.953870   7.441359
    27  H    5.526546   4.030678   6.212262   6.134081   6.387357
    28  H    1.084995   2.526855   8.417907   2.141300   2.139701
    29  H    3.187265   0.943034   7.413543   4.461511   3.582008
    30  H    8.112464   8.406252   1.084022   7.532996   8.611250
    31  H    7.178023   7.713260   1.086646   6.583782   7.440094
    32  H    8.107236   8.158557   1.083965   7.773115   8.335598
    33  H    2.180864   4.092000   5.989781   1.088425   2.847336
    34  H    2.186606   4.097124   7.145779   1.084151   3.471743
    35  H    2.158446   4.520954   7.719217   1.084757   2.683546
    36  H    2.174310   3.329150   7.022702   2.770938   1.088377
    37  H    2.163165   3.816255   8.553781   2.756471   1.085548
    38  H    2.171830   2.514522   8.354288   3.468571   1.081900
                   21         22         23         24         25
    21  H    0.000000
    22  H    2.403961   0.000000
    23  H    2.669035   4.087246   0.000000
    24  H    4.553435   3.205696   4.254978   0.000000
    25  H    5.699453   4.556375   4.911781   2.453018   0.000000
    26  H    4.309580   5.183397   2.445735   4.910853   4.259248
    27  H    3.811136   3.877246   3.177781   2.930314   4.931106
    28  H    3.279091   3.014258   5.909314   6.113617   7.543782
    29  H    3.631116   2.223432   5.103847   3.507287   5.672294
    30  H    6.383748   6.516814   4.735548   5.473739   3.694435
    31  H    6.021250   5.708354   5.103858   5.103253   3.156383
    32  H    6.814215   6.316169   5.468323   4.744288   2.485227
    33  H    2.758572   2.634640   4.765012   5.409729   5.838339
    34  H    2.294257   3.314584   4.710486   6.258539   7.085680
    35  H    3.766656   3.773632   6.159505   6.866856   7.506561
    36  H    4.366195   2.552246   6.393116   5.101953   5.866763
    37  H    4.946961   3.721386   7.370125   6.632455   7.571666
    38  H    4.740413   2.995189   6.982783   5.533603   6.886930
                   26         27         28         29         30
    26  H    0.000000
    27  H    5.086637   0.000000
    28  H    7.339351   5.895238   0.000000
    29  H    6.756892   3.386106   3.452097   0.000000
    30  H    2.489420   6.638429   9.043755   8.155447   0.000000
    31  H    3.146415   6.799432   8.191767   7.559234   1.752145
    32  H    3.697348   6.591800   9.106957   7.804916   1.754532
    33  H    5.197953   6.001043   3.055395   4.646733   6.573000
    34  H    5.717108   6.015928   2.449638   4.790109   7.569115
    35  H    6.815716   7.204323   2.524744   5.308724   8.277353
    36  H    6.979134   6.375085   3.052625   3.846163   7.883775
    37  H    8.182030   7.417620   2.471727   4.597384   9.336896
    38  H    8.061661   6.322465   2.489614   3.167454   9.204096
                   31         32         33         34         35
    31  H    0.000000
    32  H    1.752248   0.000000
    33  H    5.537629   6.783443   0.000000
    34  H    6.833522   8.025520   1.762328   0.000000
    35  H    7.210340   8.512179   1.750947   1.745217   0.000000
    36  H    6.600543   7.493706   2.666004   3.807047   2.993483
    37  H    8.087506   9.114567   3.213558   3.709963   2.473813
    38  H    8.077079   8.796042   3.829232   4.318327   3.695861
                   36         37         38
    36  H    0.000000
    37  H    1.753948   0.000000
    38  H    1.759548   1.756122   0.000000
 Stoichiometry    C15H18ClNO3
 Framework group  C1[X(C15H18ClNO3)]
 Deg. of freedom   108
 Full point group                 C1      NOp   1
 Largest Abelian subgroup         C1      NOp   1
 Largest concise Abelian subgroup C1      NOp   1
                         Standard orientation:                         
 ---------------------------------------------------------------------
 Center     Atomic      Atomic             Coordinates (Angstroms)
 Number     Number       Type             X           Y           Z
 ---------------------------------------------------------------------
      1          6           0        2.011860   -1.187871   -0.933460
      2          6           0        1.565919   -1.064474    0.373862
      3          6           0        2.456854   -0.670879    1.359341
      4          6           0        3.775100   -0.398952    1.038042
      5          6           0        4.231181   -0.497323   -0.271450
      6          6           0        3.327590   -0.895521   -1.249338
      7          7           0        0.219285   -1.377220    0.739913
      8          6           0       -0.867638   -0.904349    0.067591
      9          6           0       -2.060805   -1.470049   -0.080769
     10          6           0       -0.940772    0.487419   -0.525641
     11          6           0       -2.962566   -0.546614   -0.778980
     12          8           0       -2.246644    0.559440   -1.053848
     13         17           0       -2.547304   -3.028263    0.455019
     14          8           0       -4.089747   -0.685496   -1.094385
     15          6           0       -0.715223    1.594240    0.515898
     16          6           0       -1.048366    2.997190   -0.009393
     17          8           0       -1.514781    1.368350    1.643449
     18          6           0        5.660530   -0.160965   -0.624781
     19          6           0       -0.347115    3.312987   -1.334823
     20          6           0       -0.696913    4.046994    1.049266
     21          1           0       -0.238735    0.600275   -1.340264
     22          1           0        0.339775    1.563675    0.784875
     23          1           0        1.336636   -1.523849   -1.700893
     24          1           0        2.114229   -0.581065    2.374809
     25          1           0        4.454087   -0.099681    1.817464
     26          1           0        3.655660   -0.994300   -2.269511
     27          1           0        0.091980   -2.291057    1.120545
     28          1           0       -2.120887    3.017998   -0.172120
     29          1           0       -1.153588    0.676577    2.172886
     30          1           0        6.001356   -0.739552   -1.475768
     31          1           0        5.757961    0.890517   -0.881086
     32          1           0        6.327900   -0.360139    0.205838
     33          1           0        0.730575    3.181610   -1.257401
     34          1           0       -0.709978    2.695127   -2.148434
     35          1           0       -0.528094    4.345940   -1.612228
     36          1           0        0.376160    4.076773    1.228690
     37          1           0       -1.001030    5.034446    0.716300
     38          1           0       -1.193271    3.838362    1.987674
 ---------------------------------------------------------------------
 Rotational constants (GHZ):      0.3825653      0.2211017      0.1635660
 Leave Link  202 at Thu Jul 04 15:49:04 2019, MaxMem=   209715200 cpu:         0.0
 (Enter C:\G09W\l301.exe)
 Standard basis: 6-311++G(d,p) (5D, 7F)
 Ernie: Thresh=  0.10000D-02 Tol=  0.10000D-05 Strict=F.
 There are   594 symmetry adapted cartesian basis functions of A   symmetry.
 There are   574 symmetry adapted basis functions of A   symmetry.
   574 basis functions,   899 primitive gaussians,   594 cartesian basis functions
    78 alpha electrons       78 beta electrons
       nuclear repulsion energy      1728.7506450962 Hartrees.
 IExCor=  402 DFT=T Ex+Corr=B3LYP ExCW=0 ScaHFX=  0.200000
 ScaDFX=  0.800000  0.720000  1.000000  0.810000 ScalE2=  1.000000  1.000000
 IRadAn=      0 IRanWt=     -1 IRanGd=            0 ICorTp=0 IEmpDi=  4
 NAtoms=   38 NActive=   38 NUniq=   38 SFac= 1.00D+00 NAtFMM=   60 NAOKFM=F Big=F
 Integral buffers will be    262144 words long.
 Raffenetti 2 integral format.
 Two-electron integral symmetry is turned on.
 Leave Link  301 at Thu Jul 04 15:49:04 2019, MaxMem=   209715200 cpu:         0.0
 (Enter C:\G09W\l302.exe)
 NPDir=0 NMtPBC=     1 NCelOv=     1 NCel=       1 NClECP=     1 NCelD=      1
         NCelK=      1 NCelE2=     1 NClLst=     1 CellRange=     0.0.
 One-electron integrals computed using PRISM.
 NBasis=   574 RedAO= T EigKep=  1.64D-06  NBF=   574
 NBsUse=   571 1.00D-06 EigRej=  8.09D-07 NBFU=   571
 Precomputing XC quadrature grid using
 IXCGrd= 4 IRadAn=           0 IRanWt=          -1 IRanGd=           0 AccXCQ= 0.00D+00.
 Generated NRdTot=       0 NPtTot=           0 NUsed=           0 NTot=          16
 NSgBfM=   588   588   589   589   589 MxSgAt=    38 MxSgA2=    38.
 Leave Link  302 at Thu Jul 04 15:49:06 2019, MaxMem=   209715200 cpu:         2.0
 (Enter C:\G09W\l303.exe)
 DipDrv:  MaxL=1.
 Leave Link  303 at Thu Jul 04 15:49:06 2019, MaxMem=   209715200 cpu:         0.0
 (Enter C:\G09W\l401.exe)
 ExpMin= 3.60D-02 ExpMax= 1.06D+05 ExpMxC= 3.62D+03 IAcc=3 IRadAn=         5 AccDes= 0.00D+00
 Harris functional with IExCor=  402 and IRadAn=       5 diagonalized for initial guess.
 HarFok:  IExCor=  402 AccDes= 0.00D+00 IRadAn=         5 IDoV= 1 UseB2=F ITyADJ=14
 ICtDFT=  3500011 ScaDFX=  1.000000  1.000000  1.000000  1.000000
 FoFCou: FMM=F IPFlag=           0 FMFlag=      100000 FMFlg1=           0
         NFxFlg=           0 DoJE=T BraDBF=F KetDBF=T FulRan=T
         wScrn=  0.000000 ICntrl=     500 IOpCl=  0 I1Cent=   200000004 NGrid=           0
         NMat0=    1 NMatS0=      1 NMatT0=    0 NMatD0=    1 NMtDS0=    0 NMtDT0=    0
 Petite list used in FoFCou.
 Harris En= -1323.34955946917    
 JPrj=0 DoOrth=F DoCkMO=F.
 Leave Link  401 at Thu Jul 04 15:49:35 2019, MaxMem=   209715200 cpu:        29.0
 (Enter C:\G09W\l502.exe)
 Closed shell SCF:
 Using DIIS extrapolation, IDIIS=  1040.
 Integral symmetry usage will be decided dynamically.
 IVT=     1084212 IEndB=     1084212 NGot=   209715200 MDV=   209001059
 LenX=   209001059 LenY=   208647629
 Requested convergence on RMS density matrix=1.00D-08 within 128 cycles.
 Requested convergence on MAX density matrix=1.00D-06.
 Requested convergence on             energy=1.00D-06.
 No special actions if energy rises.
 Fock matrices will be formed incrementally for  20 cycles.

 Cycle   1  Pass 1  IDiag  1:
 FoFJK:  IHMeth= 1 ICntrl=       0 DoSepK=F KAlg= 0 I1Cent=   0 FoldK=F
 IRaf= 820000000 NMat=   1 IRICut=       1 DoRegI=T DoRafI=F ISym2E= 0.
 FoFCou: FMM=F IPFlag=           0 FMFlag=      100000 FMFlg1=           0
         NFxFlg=           0 DoJE=F BraDBF=F KetDBF=F FulRan=T
         wScrn=  0.000000 ICntrl=       0 IOpCl=  0 I1Cent=           0 NGrid=           0
         NMat0=    1 NMatS0=      1 NMatT0=    0 NMatD0=    1 NMtDS0=    0 NMtDT0=    0
 Symmetry not used in FoFCou.
 E= -1322.74412927692    
 DIIS: error= 1.85D-02 at cycle   1 NSaved=   1.
 NSaved= 1 IEnMin= 1 EnMin= -1322.74412927692     IErMin= 1 ErrMin= 1.85D-02
 ErrMax= 1.85D-02  0.00D+00 EMaxC= 1.00D-01 BMatC= 7.03D-01 BMatP= 7.03D-01
 IDIUse=3 WtCom= 8.15D-01 WtEn= 1.85D-01
 Coeff-Com:  0.100D+01
 Coeff-En:   0.100D+01
 Coeff:      0.100D+01
 Gap=     0.353 Goal=   None    Shift=    0.000
 GapD=    0.353 DampG=1.000 DampE=0.500 DampFc=0.5000 IDamp=-1.
 Damping current iteration by 5.00D-01
 RMSDP=3.41D-02 MaxDP=4.28D+00              OVMax= 2.35D-01

 Cycle   2  Pass 1  IDiag  1:
 RMSU=  1.57D-02    CP:  1.16D+00
 E= -1322.95090586515     Delta-E=       -0.206776588229 Rises=F Damp=T
 DIIS: error= 8.04D-03 at cycle   2 NSaved=   2.
 NSaved= 2 IEnMin= 2 EnMin= -1322.95090586515     IErMin= 2 ErrMin= 8.04D-03
 ErrMax= 8.04D-03  0.00D+00 EMaxC= 1.00D-01 BMatC= 6.95D-02 BMatP= 7.03D-01
 IDIUse=3 WtCom= 9.20D-01 WtEn= 8.04D-02
 Coeff-Com:  0.129D+00 0.871D+00
 Coeff-En:   0.254D+00 0.746D+00
 Coeff:      0.139D+00 0.861D+00
 Gap=     0.299 Goal=   None    Shift=    0.000
 RMSDP=1.29D-02 MaxDP=2.11D+00 DE=-2.07D-01 OVMax= 1.65D-01

 Cycle   3  Pass 1  IDiag  1:
 RMSU=  5.32D-03    CP:  9.73D-01  4.36D-01
 E= -1323.26547404265     Delta-E=       -0.314568177503 Rises=F Damp=F
 DIIS: error= 1.26D-02 at cycle   3 NSaved=   3.
 NSaved= 3 IEnMin= 3 EnMin= -1323.26547404265     IErMin= 2 ErrMin= 8.04D-03
 ErrMax= 1.26D-02  0.00D+00 EMaxC= 1.00D-01 BMatC= 7.67D-02 BMatP= 6.95D-02
 IDIUse=2 WtCom= 0.00D+00 WtEn= 1.00D+00
 Coeff-En:   0.000D+00 0.000D+00 0.100D+01
 Coeff:      0.000D+00 0.000D+00 0.100D+01
 Gap=     0.219 Goal=   None    Shift=    0.000
 RMSDP=1.35D-02 MaxDP=2.29D+00 DE=-3.15D-01 OVMax= 2.96D-01

 Cycle   4  Pass 1  IDiag  1:
 RMSU=  6.79D-03    CP:  1.15D+00  1.01D+00  8.21D-01
 E= -1322.97100828325     Delta-E=        0.294465759398 Rises=F Damp=F
 DIIS: error= 2.65D-02 at cycle   4 NSaved=   4.
 NSaved= 4 IEnMin= 3 EnMin= -1323.26547404265     IErMin= 2 ErrMin= 8.04D-03
 ErrMax= 2.65D-02  0.00D+00 EMaxC= 1.00D-01 BMatC= 4.44D-01 BMatP= 6.95D-02
 IDIUse=2 WtCom= 0.00D+00 WtEn= 1.00D+00
 Coeff-En:   0.000D+00 0.000D+00 0.801D+00 0.199D+00
 Coeff:      0.000D+00 0.000D+00 0.801D+00 0.199D+00
 Gap=     0.201 Goal=   None    Shift=    0.000
 RMSDP=7.75D-03 MaxDP=1.40D+00 DE= 2.94D-01 OVMax= 1.11D-01

 Cycle   5  Pass 1  IDiag  1:
 RMSU=  8.78D-04    CP:  1.04D+00  6.92D-01  8.89D-01  4.31D-01
 E= -1323.29802721781     Delta-E=       -0.327018934556 Rises=F Damp=F
 DIIS: error= 7.33D-03 at cycle   5 NSaved=   5.
 NSaved= 5 IEnMin= 5 EnMin= -1323.29802721781     IErMin= 5 ErrMin= 7.33D-03
 ErrMax= 7.33D-03  0.00D+00 EMaxC= 1.00D-01 BMatC= 3.51D-02 BMatP= 6.95D-02
 IDIUse=3 WtCom= 9.27D-01 WtEn= 7.33D-02
 Coeff-Com:  0.596D-02 0.598D-02 0.356D+00-0.416D-01 0.673D+00
 Coeff-En:   0.000D+00 0.000D+00 0.356D+00 0.000D+00 0.644D+00
 Coeff:      0.553D-02 0.554D-02 0.356D+00-0.385D-01 0.671D+00
 Gap=     0.193 Goal=   None    Shift=    0.000
 RMSDP=3.15D-03 MaxDP=5.38D-01 DE=-3.27D-01 OVMax= 3.26D-02

 Cycle   6  Pass 1  IDiag  1:
 RMSU=  5.51D-04    CP:  9.99D-01  5.66D-01  9.94D-01  2.29D-01  6.44D-01
 E= -1323.32487176383     Delta-E=       -0.026844546026 Rises=F Damp=F
 DIIS: error= 6.35D-04 at cycle   6 NSaved=   6.
 NSaved= 6 IEnMin= 6 EnMin= -1323.32487176383     IErMin= 6 ErrMin= 6.35D-04
 ErrMax= 6.35D-04  0.00D+00 EMaxC= 1.00D-01 BMatC= 3.15D-04 BMatP= 3.51D-02
 IDIUse=3 WtCom= 9.94D-01 WtEn= 6.35D-03
 Coeff-Com:  0.224D-02-0.606D-03 0.157D+00-0.489D-01 0.408D+00 0.482D+00
 Coeff-En:   0.000D+00 0.000D+00 0.000D+00 0.000D+00 0.000D+00 0.100D+01
 Coeff:      0.223D-02-0.602D-03 0.156D+00-0.486D-01 0.406D+00 0.485D+00
 Gap=     0.191 Goal=   None    Shift=    0.000
 RMSDP=3.95D-04 MaxDP=5.34D-02 DE=-2.68D-02 OVMax= 4.48D-03

 Cycle   7  Pass 1  IDiag  1:
 RMSU=  9.86D-05    CP:  1.00D+00  5.78D-01  9.77D-01  2.47D-01  7.35D-01
                    CP:  6.35D-01
 E= -1323.32511368565     Delta-E=       -0.000241921813 Rises=F Damp=F
 DIIS: error= 2.78D-04 at cycle   7 NSaved=   7.
 NSaved= 7 IEnMin= 7 EnMin= -1323.32511368565     IErMin= 7 ErrMin= 2.78D-04
 ErrMax= 2.78D-04  0.00D+00 EMaxC= 1.00D-01 BMatC= 1.94D-05 BMatP= 3.15D-04
 IDIUse=3 WtCom= 9.97D-01 WtEn= 2.78D-03
 Coeff-Com:  0.113D-02-0.121D-02 0.616D-01-0.234D-01 0.168D+00 0.233D+00
 Coeff-Com:  0.562D+00
 Coeff-En:   0.000D+00 0.000D+00 0.000D+00 0.000D+00 0.000D+00 0.000D+00
 Coeff-En:   0.100D+01
 Coeff:      0.112D-02-0.120D-02 0.614D-01-0.233D-01 0.167D+00 0.232D+00
 Coeff:      0.563D+00
 Gap=     0.191 Goal=   None    Shift=    0.000
 RMSDP=8.50D-05 MaxDP=1.02D-02 DE=-2.42D-04 OVMax= 1.93D-03

 Cycle   8  Pass 1  IDiag  1:
 RMSU=  3.26D-05    CP:  1.00D+00  5.75D-01  9.73D-01  2.42D-01  7.38D-01
                    CP:  6.10D-01  6.77D-01
 E= -1323.32512994501     Delta-E=       -0.000016259365 Rises=F Damp=F
 DIIS: error= 1.06D-04 at cycle   8 NSaved=   8.
 NSaved= 8 IEnMin= 8 EnMin= -1323.32512994501     IErMin= 8 ErrMin= 1.06D-04
 ErrMax= 1.06D-04  0.00D+00 EMaxC= 1.00D-01 BMatC= 4.63D-06 BMatP= 1.94D-05
 IDIUse=3 WtCom= 9.99D-01 WtEn= 1.06D-03
 Coeff-Com:  0.515D-03-0.112D-02 0.143D-01-0.593D-02 0.355D-01 0.564D-01
 Coeff-Com:  0.371D+00 0.529D+00
 Coeff-En:   0.000D+00 0.000D+00 0.000D+00 0.000D+00 0.000D+00 0.000D+00
 Coeff-En:   0.123D+00 0.877D+00
 Coeff:      0.515D-03-0.112D-02 0.143D-01-0.593D-02 0.355D-01 0.564D-01
 Coeff:      0.371D+00 0.530D+00
 Gap=     0.191 Goal=   None    Shift=    0.000
 RMSDP=2.67D-05 MaxDP=4.29D-03 DE=-1.63D-05 OVMax= 5.95D-04

 Cycle   9  Pass 1  IDiag  1:
 RMSU=  1.56D-05    CP:  1.00D+00  5.74D-01  9.74D-01  2.42D-01  7.40D-01
                    CP:  6.23D-01  7.20D-01  7.49D-01
 E= -1323.32513388227     Delta-E=       -0.000003937256 Rises=F Damp=F
 DIIS: error= 1.99D-05 at cycle   9 NSaved=   9.
 NSaved= 9 IEnMin= 9 EnMin= -1323.32513388227     IErMin= 9 ErrMin= 1.99D-05
 ErrMax= 1.99D-05  0.00D+00 EMaxC= 1.00D-01 BMatC= 3.63D-07 BMatP= 4.63D-06
 IDIUse=1 WtCom= 1.00D+00 WtEn= 0.00D+00
 Coeff-Com:  0.251D-03-0.653D-03 0.384D-02-0.163D-02 0.752D-02 0.143D-01
 Coeff-Com:  0.185D+00 0.325D+00 0.467D+00
 Coeff:      0.251D-03-0.653D-03 0.384D-02-0.163D-02 0.752D-02 0.143D-01
 Coeff:      0.185D+00 0.325D+00 0.467D+00
 Gap=     0.191 Goal=   None    Shift=    0.000
 RMSDP=9.44D-06 MaxDP=1.07D-03 DE=-3.94D-06 OVMax= 2.61D-04

 Cycle  10  Pass 1  IDiag  1:
 RMSU=  5.01D-06    CP:  1.00D+00  5.74D-01  9.74D-01  2.42D-01  7.40D-01
                    CP:  6.15D-01  7.37D-01  7.96D-01  6.88D-01
 E= -1323.32513421296     Delta-E=       -0.000000330696 Rises=F Damp=F
 DIIS: error= 4.28D-06 at cycle  10 NSaved=  10.
 NSaved=10 IEnMin=10 EnMin= -1323.32513421296     IErMin=10 ErrMin= 4.28D-06
 ErrMax= 4.28D-06  0.00D+00 EMaxC= 1.00D-01 BMatC= 1.94D-08 BMatP= 3.63D-07
 IDIUse=1 WtCom= 1.00D+00 WtEn= 0.00D+00
 Coeff-Com:  0.784D-04-0.220D-03 0.446D-03-0.192D-03 0.127D-03 0.155D-02
 Coeff-Com:  0.510D-01 0.102D+00 0.239D+00 0.607D+00
 Coeff:      0.784D-04-0.220D-03 0.446D-03-0.192D-03 0.127D-03 0.155D-02
 Coeff:      0.510D-01 0.102D+00 0.239D+00 0.607D+00
 Gap=     0.191 Goal=   None    Shift=    0.000
 RMSDP=4.72D-06 MaxDP=3.93D-04 DE=-3.31D-07 OVMax= 7.83D-05

 Cycle  11  Pass 1  IDiag  1:
 RMSU=  1.71D-06    CP:  1.00D+00  5.74D-01  9.74D-01  2.42D-01  7.39D-01
                    CP:  6.17D-01  7.51D-01  7.68D-01  6.82D-01  6.34D-01
 E= -1323.32513422831     Delta-E=       -0.000000015347 Rises=F Damp=F
 DIIS: error= 1.70D-06 at cycle  11 NSaved=  11.
 NSaved=11 IEnMin=11 EnMin= -1323.32513422831     IErMin=11 ErrMin= 1.70D-06
 ErrMax= 1.70D-06  0.00D+00 EMaxC= 1.00D-01 BMatC= 4.07D-09 BMatP= 1.94D-08
 IDIUse=1 WtCom= 1.00D+00 WtEn= 0.00D+00
 Coeff-Com:  0.159D-04-0.497D-04-0.162D-03 0.566D-04-0.654D-03-0.337D-03
 Coeff-Com:  0.778D-02 0.205D-01 0.835D-01 0.369D+00 0.521D+00
 Coeff:      0.159D-04-0.497D-04-0.162D-03 0.566D-04-0.654D-03-0.337D-03
 Coeff:      0.778D-02 0.205D-01 0.835D-01 0.369D+00 0.521D+00
 Gap=     0.191 Goal=   None    Shift=    0.000
 RMSDP=1.05D-06 MaxDP=1.26D-04 DE=-1.53D-08 OVMax= 1.84D-05

 Cycle  12  Pass 1  IDiag  1:
 RMSU=  4.30D-07    CP:  1.00D+00  5.74D-01  9.74D-01  2.42D-01  7.39D-01
                    CP:  6.17D-01  7.50D-01  7.72D-01  6.87D-01  7.00D-01
                    CP:  7.40D-01
 E= -1323.32513423130     Delta-E=       -0.000000002990 Rises=F Damp=F
 DIIS: error= 3.59D-07 at cycle  12 NSaved=  12.
 NSaved=12 IEnMin=12 EnMin= -1323.32513423130     IErMin=12 ErrMin= 3.59D-07
 ErrMax= 3.59D-07  0.00D+00 EMaxC= 1.00D-01 BMatC= 1.64D-10 BMatP= 4.07D-09
 IDIUse=1 WtCom= 1.00D+00 WtEn= 0.00D+00
 Coeff-Com:  0.451D-06-0.499D-05-0.121D-03 0.423D-04-0.329D-03-0.191D-03
 Coeff-Com: -0.123D-03 0.258D-02 0.208D-01 0.130D+00 0.228D+00 0.619D+00
 Coeff:      0.451D-06-0.499D-05-0.121D-03 0.423D-04-0.329D-03-0.191D-03
 Coeff:     -0.123D-03 0.258D-02 0.208D-01 0.130D+00 0.228D+00 0.619D+00
 Gap=     0.191 Goal=   None    Shift=    0.000
 RMSDP=3.18D-07 MaxDP=2.33D-05 DE=-2.99D-09 OVMax= 2.10D-06

 Cycle  13  Pass 1  IDiag  1:
 RMSU=  1.20D-07    CP:  1.00D+00  5.74D-01  9.74D-01  2.42D-01  7.39D-01
                    CP:  6.17D-01  7.48D-01  7.73D-01  6.93D-01  7.13D-01
                    CP:  7.12D-01  9.03D-01
 E= -1323.32513423133     Delta-E=       -0.000000000031 Rises=F Damp=F
 DIIS: error= 1.01D-07 at cycle  13 NSaved=  13.
 NSaved=13 IEnMin=13 EnMin= -1323.32513423133     IErMin=13 ErrMin= 1.01D-07
 ErrMax= 1.01D-07  0.00D+00 EMaxC= 1.00D-01 BMatC= 1.50D-11 BMatP= 1.64D-10
 IDIUse=1 WtCom= 1.00D+00 WtEn= 0.00D+00
 Coeff-Com: -0.131D-05 0.206D-05-0.407D-04 0.135D-04-0.880D-04-0.248D-04
 Coeff-Com: -0.563D-03-0.221D-03 0.211D-02 0.258D-01 0.528D-01 0.260D+00
 Coeff-Com:  0.660D+00
 Coeff:     -0.131D-05 0.206D-05-0.407D-04 0.135D-04-0.880D-04-0.248D-04
 Coeff:     -0.563D-03-0.221D-03 0.211D-02 0.258D-01 0.528D-01 0.260D+00
 Coeff:      0.660D+00
 Gap=     0.191 Goal=   None    Shift=    0.000
 RMSDP=4.88D-08 MaxDP=5.30D-06 DE=-3.14D-11 OVMax= 8.64D-07

 Cycle  14  Pass 1  IDiag  1:
 RMSU=  2.94D-08    CP:  1.00D+00  5.74D-01  9.74D-01  2.42D-01  7.39D-01
                    CP:  6.17D-01  7.48D-01  7.74D-01  6.93D-01  7.14D-01
                    CP:  7.15D-01  8.82D-01  8.10D-01
 E= -1323.32513423160     Delta-E=       -0.000000000271 Rises=F Damp=F
 DIIS: error= 4.28D-08 at cycle  14 NSaved=  14.
 NSaved=14 IEnMin=14 EnMin= -1323.32513423160     IErMin=14 ErrMin= 4.28D-08
 ErrMax= 4.28D-08  0.00D+00 EMaxC= 1.00D-01 BMatC= 2.13D-12 BMatP= 1.50D-11
 IDIUse=1 WtCom= 1.00D+00 WtEn= 0.00D+00
 Coeff-Com: -0.905D-06 0.178D-05-0.967D-05 0.300D-05-0.126D-04 0.569D-05
 Coeff-Com: -0.310D-03-0.449D-03-0.141D-02-0.190D-02 0.897D-03 0.576D-01
 Coeff-Com:  0.337D+00 0.609D+00
 Coeff:     -0.905D-06 0.178D-05-0.967D-05 0.300D-05-0.126D-04 0.569D-05
 Coeff:     -0.310D-03-0.449D-03-0.141D-02-0.190D-02 0.897D-03 0.576D-01
 Coeff:      0.337D+00 0.609D+00
 Gap=     0.191 Goal=   None    Shift=    0.000
 RMSDP=4.43D-08 MaxDP=3.41D-06 DE=-2.71D-10 OVMax= 3.04D-07

 Cycle  15  Pass 1  IDiag  1:
 RMSU=  1.08D-08    CP:  1.00D+00  5.74D-01  9.74D-01  2.42D-01  7.39D-01
                    CP:  6.17D-01  7.48D-01  7.74D-01  6.93D-01  7.12D-01
                    CP:  7.23D-01  8.86D-01  8.16D-01  8.58D-01
 E= -1323.32513423181     Delta-E=       -0.000000000211 Rises=F Damp=F
 DIIS: error= 1.15D-08 at cycle  15 NSaved=  15.
 NSaved=15 IEnMin=15 EnMin= -1323.32513423181     IErMin=15 ErrMin= 1.15D-08
 ErrMax= 1.15D-08  0.00D+00 EMaxC= 1.00D-01 BMatC= 1.46D-13 BMatP= 2.13D-12
 IDIUse=1 WtCom= 1.00D+00 WtEn= 0.00D+00
 Coeff-Com: -0.287D-06 0.587D-06-0.136D-05 0.421D-06 0.448D-06 0.454D-05
 Coeff-Com: -0.805D-04-0.161D-03-0.751D-03-0.282D-02-0.351D-02 0.458D-02
 Coeff-Com:  0.989D-01 0.283D+00 0.621D+00
 Coeff:     -0.287D-06 0.587D-06-0.136D-05 0.421D-06 0.448D-06 0.454D-05
 Coeff:     -0.805D-04-0.161D-03-0.751D-03-0.282D-02-0.351D-02 0.458D-02
 Coeff:      0.989D-01 0.283D+00 0.621D+00
 Gap=     0.191 Goal=   None    Shift=    0.000
 RMSDP=7.88D-09 MaxDP=1.21D-06 DE=-2.11D-10 OVMax= 1.18D-07

 Cycle  16  Pass 1  IDiag  1:
 RMSU=  3.09D-09    CP:  1.00D+00  5.74D-01  9.74D-01  2.42D-01  7.39D-01
                    CP:  6.17D-01  7.48D-01  7.74D-01  6.93D-01  7.13D-01
                    CP:  7.21D-01  8.93D-01  8.25D-01  8.86D-01  7.19D-01
 E= -1323.32513423159     Delta-E=        0.000000000225 Rises=F Damp=F
 DIIS: error= 6.10D-09 at cycle  16 NSaved=  16.
 NSaved=16 IEnMin=15 EnMin= -1323.32513423181     IErMin=16 ErrMin= 6.10D-09
 ErrMax= 6.10D-09  0.00D+00 EMaxC= 1.00D-01 BMatC= 2.05D-14 BMatP= 1.46D-13
 IDIUse=1 WtCom= 1.00D+00 WtEn= 0.00D+00
 Coeff-Com: -0.816D-07 0.179D-06 0.192D-07-0.183D-07 0.127D-05 0.220D-05
 Coeff-Com: -0.195D-04-0.545D-04-0.303D-03-0.146D-02-0.206D-02-0.254D-02
 Coeff-Com:  0.265D-01 0.103D+00 0.344D+00 0.533D+00
 Coeff:     -0.816D-07 0.179D-06 0.192D-07-0.183D-07 0.127D-05 0.220D-05
 Coeff:     -0.195D-04-0.545D-04-0.303D-03-0.146D-02-0.206D-02-0.254D-02
 Coeff:      0.265D-01 0.103D+00 0.344D+00 0.533D+00
 Gap=     0.191 Goal=   None    Shift=    0.000
 RMSDP=2.39D-09 MaxDP=1.81D-07 DE= 2.25D-10 OVMax= 5.14D-08

 SCF Done:  E(RB3LYP) =  -1323.32513423     A.U. after   16 cycles
            NFock= 16  Conv=0.24D-08     -V/T= 2.0030
 KE= 1.319417797595D+03 PE=-6.562932390930D+03 EE= 2.191438814007D+03
 Leave Link  502 at Thu Jul 04 16:08:36 2019, MaxMem=   209715200 cpu:      1141.0
 (Enter C:\G09W\l601.exe)
 Copying SCF densities to generalized density rwf, IOpCl= 0 IROHF=0.

 **********************************************************************

            Population analysis using the SCF density.

 **********************************************************************

 Orbital symmetries:
       Occupied  (A) (A) (A) (A) (A) (A) (A) (A) (A) (A) (A) (A)
                 (A) (A) (A) (A) (A) (A) (A) (A) (A) (A) (A) (A)
                 (A) (A) (A) (A) (A) (A) (A) (A) (A) (A) (A) (A)
                 (A) (A) (A) (A) (A) (A) (A) (A) (A) (A) (A) (A)
                 (A) (A) (A) (A) (A) (A) (A) (A) (A) (A) (A) (A)
                 (A) (A) (A) (A) (A) (A) (A) (A) (A) (A) (A) (A)
                 (A) (A) (A) (A) (A) (A)
       Virtual   (A) (A) (A) (A) (A) (A) (A) (A) (A) (A) (A) (A)
                 (A) (A) (A) (A) (A) (A) (A) (A) (A) (A) (A) (A)
                 (A) (A) (A) (A) (A) (A) (A) (A) (A) (A) (A) (A)
                 (A) (A) (A) (A) (A) (A) (A) (A) (A) (A) (A) (A)
                 (A) (A) (A) (A) (A) (A) (A) (A) (A) (A) (A) (A)
                 (A) (A) (A) (A) (A) (A) (A) (A) (A) (A) (A) (A)
                 (A) (A) (A) (A) (A) (A) (A) (A) (A) (A) (A) (A)
                 (A) (A) (A) (A) (A) (A) (A) (A) (A) (A) (A) (A)
                 (A) (A) (A) (A) (A) (A) (A) (A) (A) (A) (A) (A)
                 (A) (A) (A) (A) (A) (A) (A) (A) (A) (A) (A) (A)
                 (A) (A) (A) (A) (A) (A) (A) (A) (A) (A) (A) (A)
                 (A) (A) (A) (A) (A) (A) (A) (A) (A) (A) (A) (A)
                 (A) (A) (A) (A) (A) (A) (A) (A) (A) (A) (A) (A)
                 (A) (A) (A) (A) (A) (A) (A) (A) (A) (A) (A) (A)
                 (A) (A) (A) (A) (A) (A) (A) (A) (A) (A) (A) (A)
                 (A) (A) (A) (A) (A) (A) (A) (A) (A) (A) (A) (A)
                 (A) (A) (A) (A) (A) (A) (A) (A) (A) (A) (A) (A)
                 (A) (A) (A) (A) (A) (A) (A) (A) (A) (A) (A) (A)
                 (A) (A) (A) (A) (A) (A) (A) (A) (A) (A) (A) (A)
                 (A) (A) (A) (A) (A) (A) (A) (A) (A) (A) (A) (A)
                 (A) (A) (A) (A) (A) (A) (A) (A) (A) (A) (A) (A)
                 (A) (A) (A) (A) (A) (A) (A) (A) (A) (A) (A) (A)
                 (A) (A) (A) (A) (A) (A) (A) (A) (A) (A) (A) (A)
                 (A) (A) (A) (A) (A) (A) (A) (A) (A) (A) (A) (A)
                 (A) (A) (A) (A) (A) (A) (A) (A) (A) (A) (A) (A)
                 (A) (A) (A) (A) (A) (A) (A) (A) (A) (A) (A) (A)
                 (A) (A) (A) (A) (A) (A) (A) (A) (A) (A) (A) (A)
                 (A) (A) (A) (A) (A) (A) (A) (A) (A) (A) (A) (A)
                 (A) (A) (A) (A) (A) (A) (A) (A) (A) (A) (A) (A)
                 (A) (A) (A) (A) (A) (A) (A) (A) (A) (A) (A) (A)
                 (A) (A) (A) (A) (A) (A) (A) (A) (A) (A) (A) (A)
                 (A) (A) (A) (A) (A) (A) (A) (A) (A) (A) (A) (A)
                 (A) (A) (A) (A) (A) (A) (A) (A) (A) (A) (A) (A)
                 (A) (A) (A) (A) (A) (A) (A) (A) (A) (A) (A) (A)
                 (A) (A) (A) (A) (A) (A) (A) (A) (A) (A) (A) (A)
                 (A) (A) (A) (A) (A) (A) (A) (A) (A) (A) (A) (A)
                 (A) (A) (A) (A) (A) (A) (A) (A) (A) (A) (A) (A)
                 (A) (A) (A) (A) (A) (A) (A) (A) (A) (A) (A) (A)
                 (A) (A) (A) (A) (A) (A) (A) (A) (A) (A) (A) (A)
                 (A) (A) (A) (A) (A) (A) (A) (A) (A) (A) (A) (A)
                 (A) (A) (A) (A) (A) (A) (A) (A) (A) (A) (A) (A)
                 (A)
 The electronic state is 1-A.
 Alpha  occ. eigenvalues -- -101.56932 -19.16791 -19.13476 -19.10109 -14.37149
 Alpha  occ. eigenvalues --  -10.29680 -10.25648 -10.25017 -10.24002 -10.23953
 Alpha  occ. eigenvalues --  -10.23087 -10.20857 -10.20192 -10.20063 -10.19802
 Alpha  occ. eigenvalues --  -10.19775 -10.18618 -10.17897 -10.16317 -10.15481
 Alpha  occ. eigenvalues --   -9.48372  -7.24841  -7.23837  -7.23830  -1.12697
 Alpha  occ. eigenvalues --   -1.05522  -1.03889  -0.99135  -0.89887  -0.88267
 Alpha  occ. eigenvalues --   -0.82287  -0.81175  -0.78552  -0.78121  -0.75649
 Alpha  occ. eigenvalues --   -0.71420  -0.69301  -0.67236  -0.64835  -0.63397
 Alpha  occ. eigenvalues --   -0.61898  -0.59861  -0.57467  -0.55434  -0.54227
 Alpha  occ. eigenvalues --   -0.53783  -0.52528  -0.50384  -0.50060  -0.49134
 Alpha  occ. eigenvalues --   -0.46409  -0.45993  -0.45432  -0.44737  -0.44651
 Alpha  occ. eigenvalues --   -0.44102  -0.43401  -0.42030  -0.41736  -0.40095
 Alpha  occ. eigenvalues --   -0.39763  -0.39280  -0.38917  -0.38572  -0.38198
 Alpha  occ. eigenvalues --   -0.37500  -0.37250  -0.34695  -0.34623  -0.34109
 Alpha  occ. eigenvalues --   -0.33508  -0.32562  -0.32026  -0.29064  -0.28678
 Alpha  occ. eigenvalues --   -0.28095  -0.27636  -0.23972
 Alpha virt. eigenvalues --   -0.04888  -0.04410  -0.02683  -0.02397  -0.01386
 Alpha virt. eigenvalues --   -0.00569  -0.00237   0.00489   0.01026   0.01541
 Alpha virt. eigenvalues --    0.01865   0.02064   0.02509   0.03308   0.03937
 Alpha virt. eigenvalues --    0.04060   0.04287   0.04713   0.05276   0.05468
 Alpha virt. eigenvalues --    0.06021   0.06284   0.07000   0.07038   0.07343
 Alpha virt. eigenvalues --    0.07745   0.07928   0.08271   0.08563   0.08948
 Alpha virt. eigenvalues --    0.09235   0.09506   0.09834   0.09951   0.10324
 Alpha virt. eigenvalues --    0.10399   0.10861   0.11105   0.11254   0.11351
 Alpha virt. eigenvalues --    0.11690   0.11907   0.12210   0.12896   0.13048
 Alpha virt. eigenvalues --    0.13223   0.13359   0.13909   0.14027   0.14439
 Alpha virt. eigenvalues --    0.14583   0.14910   0.15050   0.15225   0.15351
 Alpha virt. eigenvalues --    0.15561   0.15912   0.15966   0.16161   0.16235
 Alpha virt. eigenvalues --    0.16674   0.17024   0.17235   0.17502   0.17831
 Alpha virt. eigenvalues --    0.18155   0.18349   0.18843   0.19078   0.19369
 Alpha virt. eigenvalues --    0.19741   0.19814   0.20260   0.20701   0.20970
 Alpha virt. eigenvalues --    0.21319   0.21563   0.21605   0.21823   0.22712
 Alpha virt. eigenvalues --    0.22754   0.23599   0.23678   0.24083   0.24621
 Alpha virt. eigenvalues --    0.24777   0.25411   0.25569   0.25719   0.26268
 Alpha virt. eigenvalues --    0.26367   0.26431   0.27375   0.27458   0.27584
 Alpha virt. eigenvalues --    0.28093   0.28525   0.28684   0.28829   0.29575
 Alpha virt. eigenvalues --    0.29771   0.30010   0.30201   0.30382   0.30672
 Alpha virt. eigenvalues --    0.30934   0.31147   0.31390   0.31789   0.32256
 Alpha virt. eigenvalues --    0.32581   0.33281   0.33798   0.34154   0.34450
 Alpha virt. eigenvalues --    0.34906   0.35569   0.35866   0.36307   0.36506
 Alpha virt. eigenvalues --    0.37013   0.37292   0.38003   0.38730   0.39390
 Alpha virt. eigenvalues --    0.39714   0.40842   0.41156   0.41580   0.41994
 Alpha virt. eigenvalues --    0.42668   0.43531   0.43909   0.45068   0.46115
 Alpha virt. eigenvalues --    0.46364   0.47244   0.47431   0.48435   0.48611
 Alpha virt. eigenvalues --    0.49955   0.50346   0.50956   0.52086   0.52877
 Alpha virt. eigenvalues --    0.53713   0.54137   0.54775   0.55662   0.56043
 Alpha virt. eigenvalues --    0.56255   0.57533   0.57872   0.58450   0.58783
 Alpha virt. eigenvalues --    0.59491   0.60227   0.61315   0.61891   0.62258
 Alpha virt. eigenvalues --    0.62739   0.63117   0.63973   0.64085   0.64903
 Alpha virt. eigenvalues --    0.65391   0.65811   0.66331   0.66754   0.67146
 Alpha virt. eigenvalues --    0.68094   0.68488   0.68839   0.69098   0.70009
 Alpha virt. eigenvalues --    0.71312   0.71770   0.72067   0.72360   0.73298
 Alpha virt. eigenvalues --    0.73373   0.73759   0.74519   0.74937   0.75563
 Alpha virt. eigenvalues --    0.76142   0.76766   0.77383   0.77574   0.78539
 Alpha virt. eigenvalues --    0.79480   0.80078   0.80945   0.81351   0.81861
 Alpha virt. eigenvalues --    0.83349   0.83644   0.85146   0.86409   0.86753
 Alpha virt. eigenvalues --    0.87519   0.88148   0.88319   0.88874   0.89060
 Alpha virt. eigenvalues --    0.89484   0.90589   0.91252   0.92073   0.93097
 Alpha virt. eigenvalues --    0.94863   0.95545   0.95740   0.96820   0.98063
 Alpha virt. eigenvalues --    0.98603   0.99494   1.00056   1.01422   1.02047
 Alpha virt. eigenvalues --    1.02891   1.04329   1.05650   1.05875   1.06684
 Alpha virt. eigenvalues --    1.07211   1.07953   1.09449   1.10675   1.11925
 Alpha virt. eigenvalues --    1.12855   1.14315   1.14776   1.16249   1.18339
 Alpha virt. eigenvalues --    1.20319   1.20769   1.21681   1.22551   1.22899
 Alpha virt. eigenvalues --    1.23835   1.25761   1.26928   1.28476   1.30466
 Alpha virt. eigenvalues --    1.31692   1.32369   1.32793   1.33271   1.35224
 Alpha virt. eigenvalues --    1.35918   1.37678   1.38136   1.39366   1.41104
 Alpha virt. eigenvalues --    1.42760   1.44799   1.46146   1.47006   1.47807
 Alpha virt. eigenvalues --    1.49297   1.49733   1.50068   1.50657   1.51167
 Alpha virt. eigenvalues --    1.52667   1.53524   1.54717   1.54983   1.55491
 Alpha virt. eigenvalues --    1.56257   1.56558   1.57426   1.58277   1.58845
 Alpha virt. eigenvalues --    1.59690   1.60358   1.61249   1.62830   1.63470
 Alpha virt. eigenvalues --    1.63989   1.64696   1.66318   1.66921   1.67495
 Alpha virt. eigenvalues --    1.68085   1.68527   1.70587   1.70944   1.72472
 Alpha virt. eigenvalues --    1.74526   1.75339   1.75957   1.76875   1.77073
 Alpha virt. eigenvalues --    1.77910   1.78197   1.80087   1.80305   1.81718
 Alpha virt. eigenvalues --    1.82071   1.82771   1.83678   1.83838   1.85630
 Alpha virt. eigenvalues --    1.87351   1.89165   1.89351   1.90912   1.91738
 Alpha virt. eigenvalues --    1.92530   1.93294   1.94457   1.94837   1.95906
 Alpha virt. eigenvalues --    1.96951   1.98621   1.99299   2.00706   2.02953
 Alpha virt. eigenvalues --    2.04312   2.04939   2.06929   2.07213   2.07970
 Alpha virt. eigenvalues --    2.08578   2.09019   2.09824   2.10403   2.12790
 Alpha virt. eigenvalues --    2.14368   2.15450   2.17157   2.17825   2.18906
 Alpha virt. eigenvalues --    2.19359   2.21444   2.22218   2.23750   2.25466
 Alpha virt. eigenvalues --    2.26302   2.29292   2.31440   2.33946   2.35236
 Alpha virt. eigenvalues --    2.36284   2.38538   2.38902   2.41285   2.42588
 Alpha virt. eigenvalues --    2.43540   2.45688   2.46694   2.47139   2.49902
 Alpha virt. eigenvalues --    2.51569   2.52157   2.53135   2.53877   2.55540
 Alpha virt. eigenvalues --    2.55629   2.56635   2.57604   2.58449   2.59068
 Alpha virt. eigenvalues --    2.60003   2.60662   2.61707   2.63981   2.64369
 Alpha virt. eigenvalues --    2.66485   2.67042   2.68053   2.69134   2.69594
 Alpha virt. eigenvalues --    2.71770   2.72002   2.72875   2.73691   2.74325
 Alpha virt. eigenvalues --    2.75770   2.76347   2.77408   2.79246   2.79453
 Alpha virt. eigenvalues --    2.80812   2.81433   2.82655   2.84192   2.86749
 Alpha virt. eigenvalues --    2.89117   2.90411   2.91336   2.91697   2.92667
 Alpha virt. eigenvalues --    2.93395   2.94068   2.95128   2.95555   2.96528
 Alpha virt. eigenvalues --    2.97394   2.98086   3.00120   3.01553   3.03697
 Alpha virt. eigenvalues --    3.04977   3.06061   3.09098   3.09991   3.12708
 Alpha virt. eigenvalues --    3.13217   3.17868   3.18861   3.19581   3.19973
 Alpha virt. eigenvalues --    3.21364   3.22666   3.23816   3.25206   3.29285
 Alpha virt. eigenvalues --    3.31062   3.34561   3.36890   3.37777   3.42678
 Alpha virt. eigenvalues --    3.44006   3.49319   3.50228   3.51669   3.54258
 Alpha virt. eigenvalues --    3.61859   3.63082   3.67550   3.72570   3.78830
 Alpha virt. eigenvalues --    3.80114   3.80980   3.82390   3.82673   3.85630
 Alpha virt. eigenvalues --    3.85823   3.90093   3.93386   3.97520   3.99255
 Alpha virt. eigenvalues --    4.00320   4.03737   4.09400   4.12786   4.14784
 Alpha virt. eigenvalues --    4.16504   4.17119   4.22215   4.31014   4.31987
 Alpha virt. eigenvalues --    4.33530   4.39336   4.83377   4.84471   5.08382
 Alpha virt. eigenvalues --    5.09482   5.11347   5.17633   5.22879   5.46891
 Alpha virt. eigenvalues --    5.49219   5.71119   5.74506   5.94124   9.81734
 Alpha virt. eigenvalues --   23.60003  23.64492  23.81940  23.83177  23.86600
 Alpha virt. eigenvalues --   23.93105  23.96691  23.97652  23.98729  24.00502
 Alpha virt. eigenvalues --   24.01924  24.08062  24.11499  24.20133  24.22440
 Alpha virt. eigenvalues --   25.88707  26.15111  26.73705  35.66214  49.93917
 Alpha virt. eigenvalues --   49.97726  50.09581 215.81701
          Condensed to atoms (all electrons):
               1          2          3          4          5          6
     1  C   10.022207   1.044160  -2.739048   0.582205  -1.569977  -1.281123
     2  C    1.044160  16.482892  -3.035616  -1.216794  -0.088014  -4.123210
     3  C   -2.739048  -3.035616  10.755731  -0.217233  -0.884596   1.277158
     4  C    0.582205  -1.216794  -0.217233   8.503603   0.082222  -1.398934
     5  C   -1.569977  -0.088014  -0.884596   0.082222   9.001399   0.033644
     6  C   -1.281123  -4.123210   1.277158  -1.398934   0.033644  11.236822
     7  N   -0.497547  -1.848037   0.964559   0.314132  -0.037839   0.312831
     8  C    0.701031   0.356899  -1.480417  -0.028310  -0.164630  -0.398955
     9  C    1.271991   1.117329  -1.980880   0.042550   0.084279  -0.289613
    10  C   -2.164349  -1.226445   2.945121  -0.178890   0.028684   0.317312
    11  C   -0.258584   0.647736   0.031264  -0.003574   0.009005  -0.185426
    12  O    0.033301   0.033342  -0.073905  -0.003110  -0.001644  -0.001573
    13  Cl   0.390096  -0.353998  -0.216248  -0.015611   0.017338   0.127792
    14  O    0.006303  -0.004686  -0.000790   0.000079   0.000125   0.000745
    15  C    0.789849  -0.728531  -0.570003   0.402696  -0.243549   0.157190
    16  C   -0.228622  -0.559144   0.514939  -0.063480   0.060490   0.136515
    17  O    0.019033   0.215204  -0.123158  -0.019410   0.003601  -0.011735
    18  C   -0.412761  -0.193654   0.227340  -0.729950  -0.446079   0.081006
    19  C    0.002452   0.031020   0.005675   0.038644  -0.025842  -0.049028
    20  C    0.025601  -0.038316  -0.028280   0.025971  -0.014940  -0.000959
    21  H   -0.062791   0.107772   0.062795  -0.045401   0.015561  -0.072615
    22  H   -0.004086   0.005451  -0.061984  -0.037502   0.074320   0.028538
    23  H    0.430734  -0.167164  -0.047357   0.011542   0.010834   0.067173
    24  H   -0.065974  -0.188020   0.532630  -0.003078   0.028592   0.024897
    25  H    0.050421   0.039410  -0.081463   0.351821  -0.057109   0.023935
    26  H    0.048628   0.075679   0.057348   0.009234  -0.130781   0.274289
    27  H    0.065363  -0.152298  -0.089185  -0.004024   0.005783   0.048347
    28  H   -0.007168  -0.003998   0.014852  -0.004264   0.002464   0.003742
    29  H    0.000517  -0.001832  -0.003003  -0.000886  -0.005815  -0.006425
    30  H   -0.008660  -0.004303  -0.024463  -0.061110  -0.065280   0.080195
    31  H    0.031915   0.011556   0.003145  -0.031644   0.056070  -0.005930
    32  H   -0.030982  -0.006788   0.020445   0.100768  -0.091124  -0.072161
    33  H   -0.004435  -0.013413  -0.000608  -0.000060   0.006097   0.012107
    34  H    0.005858   0.001993  -0.012534   0.003149   0.002315   0.004365
    35  H    0.001615   0.003653  -0.000441   0.000773  -0.001391  -0.005267
    36  H   -0.001912   0.012183  -0.000112  -0.003336   0.000175  -0.004462
    37  H    0.000162  -0.006701   0.003458   0.000048  -0.000163   0.002180
    38  H    0.000731  -0.005328  -0.000375   0.003077  -0.000742  -0.000188
               7          8          9         10         11         12
     1  C   -0.497547   0.701031   1.271991  -2.164349  -0.258584   0.033301
     2  C   -1.848037   0.356899   1.117329  -1.226445   0.647736   0.033342
     3  C    0.964559  -1.480417  -1.980880   2.945121   0.031264  -0.073905
     4  C    0.314132  -0.028310   0.042550  -0.178890  -0.003574  -0.003110
     5  C   -0.037839  -0.164630   0.084279   0.028684   0.009005  -0.001644
     6  C    0.312831  -0.398955  -0.289613   0.317312  -0.185426  -0.001573
     7  N    8.324167  -1.350042  -0.863085   0.496292   0.087067  -0.043975
     8  C   -1.350042  13.304897  -1.633498   0.480631  -1.079939  -0.157823
[...]
   320. RY*(  17) O  14                  0.00001     2.97122   
   321. RY*(   1) C  15                  0.00583     0.94660   
   322. RY*(   2) C  15                  0.00430     0.91349   
   323. RY*(   3) C  15                  0.00278     1.28919   
   324. RY*(   4) C  15                  0.00201     0.87747   
   325. RY*(   5) C  15                  0.00159     1.69838   
   326. RY*(   6) C  15                  0.00088     1.85013   
   327. RY*(   7) C  15                  0.00064     1.41894   
   328. RY*(   8) C  15                  0.00025     2.43065   
   329. RY*(   9) C  15                  0.00016     2.08703   
   330. RY*(  10) C  15                  0.00013     1.84629   
   331. RY*(  11) C  15                  0.00009     1.40661   
   332. RY*(  12) C  15                  0.00009     1.50820   
   333. RY*(  13) C  15                  0.00005     1.56184   
   334. RY*(  14) C  15                  0.00005     2.44248   
   335. RY*(  15) C  15                  0.00003     2.73692   
   336. RY*(  16) C  15                  0.00003     3.22660   
   337. RY*(  17) C  15                  0.00000    20.94268   
   338. RY*(   1) C  16                  0.00525     0.83725   
   339. RY*(   2) C  16                  0.00396     0.85360   
   340. RY*(   3) C  16                  0.00174     0.88372   
   341. RY*(   4) C  16                  0.00073     1.28925   
   342. RY*(   5) C  16                  0.00049     1.57621   
   343. RY*(   6) C  16                  0.00028     1.71028   
   344. RY*(   7) C  16                  0.00024     1.87131   
   345. RY*(   8) C  16                  0.00016     2.14269   
   346. RY*(   9) C  16                  0.00016     1.57785   
   347. RY*(  10) C  16                  0.00011     2.80300   
   348. RY*(  11) C  16                  0.00009     2.13217   
   349. RY*(  12) C  16                  0.00006     2.23096   
   350. RY*(  13) C  16                  0.00003     3.62109   
   351. RY*(  14) C  16                  0.00004     1.25050   
   352. RY*(  15) C  16                  0.00002     1.75845   
   353. RY*(  16) C  16                  0.00000    20.83401   
   354. RY*(  17) C  16                  0.00000     1.76879   
   355. RY*(   1) O  17                  0.00271     0.66307   
   356. RY*(   2) O  17                  0.00166     1.07522   
   357. RY*(   3) O  17                  0.00047     0.45627   
   358. RY*(   4) O  17                  0.00024     1.29989   
   359. RY*(   5) O  17                  0.00009     1.50629   
   360. RY*(   6) O  17                  0.00006     1.56981   
   361. RY*(   7) O  17                  0.00004     1.67416   
   362. RY*(   8) O  17                  0.00003     1.47019   
   363. RY*(   9) O  17                  0.00002     2.74834   
   364. RY*(  10) O  17                  0.00001     3.00040   
   365. RY*(  11) O  17                  0.00000     4.96696   
   366. RY*(  12) O  17                  0.00000     4.89496   
   367. RY*(  13) O  17                  0.00001     3.14829   
   368. RY*(  14) O  17                  0.00000    49.66644   
   369. RY*(  15) O  17                  0.00000     5.17684   
   370. RY*(  16) O  17                  0.00001     2.73938   
   371. RY*(  17) O  17                  0.00001     3.02198   
   372. RY*(   1) C  18                  0.00363     0.58673   
   373. RY*(   2) C  18                  0.00084     0.98769   
   374. RY*(   3) C  18                  0.00038     0.58868   
   375. RY*(   4) C  18                  0.00018     2.50198   
   376. RY*(   5) C  18                  0.00008     0.52639   
   377. RY*(   6) C  18                  0.00007     1.25703   
   378. RY*(   7) C  18                  0.00002     1.29254   
   379. RY*(   8) C  18                  0.00000     0.37568   
   380. RY*(   9) C  18                  0.00000     3.02316   
   381. RY*(  10) C  18                  0.00000    22.83896   
   382. RY*(  11) C  18                  0.00000     1.54239   
   383. RY*(  12) C  18                  0.00000     3.00885   
   384. RY*(  13) C  18                  0.00001     0.95557   
   385. RY*(  14) C  18                  0.00000     1.84000   
   386. RY*(  15) C  18                  0.00001     1.88718   
   387. RY*(  16) C  18                  0.00001     1.76757   
   388. RY*(  17) C  18                  0.00001     1.64905   
   389. RY*(   1) C  19                  0.00250     0.73493   
   390. RY*(   2) C  19                  0.00200     0.74373   
   391. RY*(   3) C  19                  0.00039     0.85090   
   392. RY*(   4) C  19                  0.00024     1.71602   
   393. RY*(   5) C  19                  0.00017     0.72290   
   394. RY*(   6) C  19                  0.00008     1.13550   
   395. RY*(   7) C  19                  0.00006     0.93755   
   396. RY*(   8) C  19                  0.00003     1.48140   
   397. RY*(   9) C  19                  0.00001     3.00474   
   398. RY*(  10) C  19                  0.00001     2.84279   
   399. RY*(  11) C  19                  0.00002     1.71221   
   400. RY*(  12) C  19                  0.00001     2.28137   
   401. RY*(  13) C  19                  0.00002     0.82135   
   402. RY*(  14) C  19                  0.00002     1.85977   
   403. RY*(  15) C  19                  0.00000     1.76667   
   404. RY*(  16) C  19                  0.00000    23.09950   
   405. RY*(  17) C  19                  0.00001     1.86604   
   406. RY*(   1) C  20                  0.00281     0.69752   
   407. RY*(   2) C  20                  0.00214     0.75407   
   408. RY*(   3) C  20                  0.00030     0.70523   
   409. RY*(   4) C  20                  0.00020     1.81577   
   410. RY*(   5) C  20                  0.00018     0.77347   
   411. RY*(   6) C  20                  0.00007     1.13935   
   412. RY*(   7) C  20                  0.00007     1.04447   
   413. RY*(   8) C  20                  0.00003     1.95811   
   414. RY*(   9) C  20                  0.00002     2.25927   
   415. RY*(  10) C  20                  0.00001     0.75061   
   416. RY*(  11) C  20                  0.00000    22.87911   
   417. RY*(  12) C  20                  0.00000     2.36506   
   418. RY*(  13) C  20                  0.00000     1.87400   
   419. RY*(  14) C  20                  0.00001     1.74776   
   420. RY*(  15) C  20                  0.00000     2.89093   
   421. RY*(  16) C  20                  0.00001     2.31555   
   422. RY*(  17) C  20                  0.00001     1.43673   
   423. RY*(   1) H  21                  0.00130     0.87063   
   424. RY*(   2) H  21                  0.00031     1.89387   
   425. RY*(   3) H  21                  0.00017     1.94583   
   426. RY*(   4) H  21                  0.00013     0.63777   
   427. RY*(   5) H  21                  0.00009     2.28339   
   428. RY*(   6) H  21                  0.00009     2.29566   
   429. RY*(   1) H  22                  0.00191     0.60859   
   430. RY*(   2) H  22                  0.00038     1.85384   
   431. RY*(   3) H  22                  0.00027     1.83833   
   432. RY*(   4) H  22                  0.00018     1.75444   
   433. RY*(   5) H  22                  0.00015     1.33008   
   434. RY*(   6) H  22                  0.00006     2.44454   
   435. RY*(   1) H  23                  0.00133     0.50199   
   436. RY*(   2) H  23                  0.00031     2.08767   
   437. RY*(   3) H  23                  0.00024     1.77479   
   438. RY*(   4) H  23                  0.00011     1.81819   
   439. RY*(   5) H  23                  0.00007     1.17094   
   440. RY*(   6) H  23                  0.00004     2.05982   
   441. RY*(   1) H  24                  0.00090     0.89542   
   442. RY*(   2) H  24                  0.00022     1.78373   
   443. RY*(   3) H  24                  0.00018     1.85108   
   444. RY*(   4) H  24                  0.00012     1.98334   
   445. RY*(   5) H  24                  0.00004     0.30545   
   446. RY*(   6) H  24                  0.00004     2.47826   
   447. RY*(   1) H  25                  0.00082     0.77671   
   448. RY*(   2) H  25                  0.00021     2.22769   
   449. RY*(   3) H  25                  0.00019     1.58388   
   450. RY*(   4) H  25                  0.00013     1.77865   
   451. RY*(   5) H  25                  0.00006     0.47802   
   452. RY*(   6) H  25                  0.00003     2.38204   
   453. RY*(   1) H  26                  0.00084     0.77592   
   454. RY*(   2) H  26                  0.00020     2.18118   
   455. RY*(   3) H  26                  0.00019     1.64750   
   456. RY*(   4) H  26                  0.00014     1.61467   
   457. RY*(   5) H  26                  0.00005     0.60804   
   458. RY*(   6) H  26                  0.00004     2.44039   
   459. RY*(   1) H  27                  0.00157     0.82160   
   460. RY*(   2) H  27                  0.00069     1.65365   
   461. RY*(   3) H  27                  0.00037     1.65148   
   462. RY*(   4) H  27                  0.00023     2.03457   
   463. RY*(   5) H  27                  0.00014     1.01854   
   464. RY*(   6) H  27                  0.00006     2.46237   
   465. RY*(   1) H  28                  0.00229     0.56588   
   466. RY*(   2) H  28                  0.00031     2.15480   
   467. RY*(   3) H  28                  0.00015     1.79693   
   468. RY*(   4) H  28                  0.00015     1.92908   
   469. RY*(   5) H  28                  0.00007     0.51499   
   470. RY*(   6) H  28                  0.00004     2.62564   
   471. RY*(   1) H  29                  0.00193     1.57165   
   472. RY*(   2) H  29                  0.00126     1.78040   
   473. RY*(   3) H  29                  0.00046     1.15425   
   474. RY*(   4) H  29                  0.00038     1.67492   
   475. RY*(   5) H  29                  0.00013     0.51393   
   476. RY*(   6) H  29                  0.00001     2.62046   
   477. RY*(   1) H  30                  0.00091     0.63997   
   478. RY*(   2) H  30                  0.00016     1.94423   
   479. RY*(   3) H  30                  0.00012     1.70673   
   480. RY*(   4) H  30                  0.00010     1.30294   
   481. RY*(   5) H  30                  0.00005     1.06552   
   482. RY*(   6) H  30                  0.00002     2.42708   
   483. RY*(   1) H  31                  0.00096     0.64154   
   484. RY*(   2) H  31                  0.00018     1.82073   
   485. RY*(   3) H  31                  0.00014     1.78264   
   486. RY*(   4) H  31                  0.00009     1.33177   
   487. RY*(   5) H  31                  0.00005     1.98860   
   488. RY*(   6) H  31                  0.00003     1.59232   
   489. RY*(   1) H  32                  0.00091     0.63880   
   490. RY*(   2) H  32                  0.00016     1.92635   
   491. RY*(   3) H  32                  0.00012     1.74340   
   492. RY*(   4) H  32                  0.00009     1.34306   
   493. RY*(   5) H  32                  0.00005     1.01651   
   494. RY*(   6) H  32                  0.00002     2.41586   
   495. RY*(   1) H  33                  0.00098     0.78188   
   496. RY*(   2) H  33                  0.00018     1.95632   
   497. RY*(   3) H  33                  0.00015     1.58349   
   498. RY*(   4) H  33                  0.00010     0.55894   
   499. RY*(   5) H  33                  0.00010     2.09600   
   500. RY*(   6) H  33                  0.00003     2.48257   
   501. RY*(   1) H  34                  0.00068     0.93486   
   502. RY*(   2) H  34                  0.00018     1.56480   
   503. RY*(   3) H  34                  0.00013     1.86434   
   504. RY*(   4) H  34                  0.00011     1.75140   
   505. RY*(   5) H  34                  0.00005     0.71899   
   506. RY*(   6) H  34                  0.00003     2.51787   
   507. RY*(   1) H  35                  0.00074     0.71520   
   508. RY*(   2) H  35                  0.00017     1.82822   
   509. RY*(   3) H  35                  0.00012     1.79035   
   510. RY*(   4) H  35                  0.00009     2.16626   
   511. RY*(   5) H  35                  0.00005     0.30532   
   512. RY*(   6) H  35                  0.00003     2.50005   
   513. RY*(   1) H  36                  0.00087     0.76269   
   514. RY*(   2) H  36                  0.00019     1.98985   
   515. RY*(   3) H  36                  0.00014     1.61806   
   516. RY*(   4) H  36                  0.00011     1.87100   
   517. RY*(   5) H  36                  0.00008     0.60200   
   518. RY*(   6) H  36                  0.00003     2.52658   
   519. RY*(   1) H  37                  0.00073     0.64776   
   520. RY*(   2) H  37                  0.00018     1.92610   
   521. RY*(   3) H  37                  0.00012     1.81311   
   522. RY*(   4) H  37                  0.00008     2.12047   
   523. RY*(   5) H  37                  0.00007     0.35270   
   524. RY*(   6) H  37                  0.00002     2.46048   
   525. RY*(   1) H  38                  0.00064     0.73840   
   526. RY*(   2) H  38                  0.00021     1.26102   
   527. RY*(   3) H  38                  0.00015     1.88679   
   528. RY*(   4) H  38                  0.00010     1.92328   
   529. RY*(   5) H  38                  0.00007     0.90839   
   530. RY*(   6) H  38                  0.00004     2.62266   
   531. BD*(   1) C   1 - C   2          0.02754     0.54365   
   532. BD*(   2) C   1 - C   2          0.39206     0.00004  538(v),543(v),81(g),549(r)
                                                    547(v),100(g),115(v),546(v)
   533. BD*(   1) C   1 - C   6          0.01387     0.55857   
   534. BD*(   1) C   1 - H  23          0.01326     0.41529   
   535. BD*(   1) C   2 - C   3          0.02434     0.54217   
   536. BD*(   1) C   2 - N   7          0.03053     0.37241   
   537. BD*(   1) C   3 - C   4          0.01349     0.56000   
   538. BD*(   2) C   3 - C   4          0.32531     0.00715  532(v),543(v),116(g),133(g)
                                                    132(g),115(g)
   539. BD*(   1) C   3 - H  24          0.01293     0.41218   
   540. BD*(   1) C   4 - C   5          0.02403     0.55805   
   541. BD*(   1) C   4 - H  25          0.01390     0.41998   
   542. BD*(   1) C   5 - C   6          0.02379     0.56069   
   543. BD*(   2) C   5 - C   6          0.33953     0.01582  538(v),532(v),166(g),567(v)
                                                    132(v)
   544. BD*(   1) C   5 - C  18          0.01572     0.40179   
   545. BD*(   1) C   6 - H  26          0.01415     0.41953   
   546. BD*(   1) N   7 - C   8          0.02771     0.44417   
   547. BD*(   1) N   7 - H  27          0.02305     0.36319   
   548. BD*(   1) C   8 - C   9          0.02708     0.59501   
   549. BD*(   2) C   8 - C   9          0.29590    -0.00240  558(v),532(r),217(g),554(v)
                                                    555(v),201(g),283(v),181(v)
   550. BD*(   1) C   8 - C  10          0.03664     0.36197   
   551. BD*(   1) C   9 - C  11          0.08301     0.42764   
   552. BD*(   1) C   9 -Cl  13          0.02883     0.14530   
   553. BD*(   1) C  10 - O  12          0.02966     0.25496   
   554. BD*(   1) C  10 - C  15          0.05132     0.33704   
   555. BD*(   1) C  10 - H  21          0.02806     0.37686   
   556. BD*(   1) C  11 - O  12          0.11663     0.32586  553(g),550(v),554(v),250(g)
                                                    552(v),548(v),255(g)
   557. BD*(   1) C  11 - O  14          0.01300     0.64048   
   558. BD*(   2) C  11 - O  14          0.27776     0.01758  549(v),251(g),305(g),256(g)
   559. BD*(   1) C  15 - C  16          0.02991     0.37197   
   560. BD*(   1) C  15 - O  17          0.02373     0.27137   
   561. BD*(   1) C  15 - H  22          0.03538     0.36614   
   562. BD*(   1) C  16 - C  19          0.01266     0.38264   
   563. BD*(   1) C  16 - C  20          0.01294     0.38654   
   564. BD*(   1) C  16 - H  28          0.02359     0.41123   
   565. BD*(   1) O  17 - H  29          0.00709     0.42197   
   566. BD*(   1) C  18 - H  30          0.00496     0.38708   
   567. BD*(   1) C  18 - H  31          0.01025     0.38291   
   568. BD*(   1) C  18 - H  32          0.00573     0.38660   
   569. BD*(   1) C  19 - H  33          0.00896     0.39696   
   570. BD*(   1) C  19 - H  34          0.00613     0.41487   
   571. BD*(   1) C  19 - H  35          0.00621     0.41225   
   572. BD*(   1) C  20 - H  36          0.00899     0.40331   
   573. BD*(   1) C  20 - H  37          0.00551     0.41566   
   574. BD*(   1) C  20 - H  38          0.00573     0.43343   
       -------------------------------
              Total Lewis  153.16536  ( 98.1829%)
        Valence non-Lewis    2.53089  (  1.6224%)
        Rydberg non-Lewis    0.30375  (  0.1947%)
       -------------------------------
            Total unit  1  156.00000  (100.0000%)
           Charge unit  1    0.00000
 Leave Link  607 at Thu Jul 04 22:13:44 2019, MaxMem=   209715200 cpu:         8.0
 (Enter C:\G09W\l9999.exe)
 1|1|UNPC-CCSC-02011910|FOpt|RB3LYP|6-311++G(d,p)|C15H18Cl1N1O3|EDUARDO
 .MELO|04-Jul-2019|0||#p opt b3lyp/6-311++g(d,p) pop=(nbo,chelpg) geom=
 connectivity||9aa.log||0,1|C,1.9919799762,-0.852503683,-0.9564809888|C
 ,1.5694049065,-1.0729390433,0.3560843486|C,2.5049636299,-1.0048092214,
 1.3919171541|C,3.8360274599,-0.7112884125,1.1153361606|C,4.2692877804,
 -0.4552148376,-0.1908178213|C,3.3225565243,-0.53381943,-1.2167172693|N
 ,0.220203951,-1.4124292551,0.6682184733|C,-0.9028691426,-0.9275264303,
 0.06255004|C,-2.1282877986,-1.4926751205,0.0388186807|C,-1.0273015585,
 0.4551504901,-0.5475846619|C,-3.0925074414,-0.5982866629,-0.6058286322
 |O,-2.3937771872,0.5333686472,-0.9786220885|Cl,-2.5532333795,-3.040312
 7897,0.6823784604|O,-4.2597689757,-0.7405917934,-0.8314836354|C,-0.694
 0682566,1.5944840629,0.4453135174|C,-1.0365313358,2.9923054126,-0.0994
 720061|O,-1.404466887,1.4351251619,1.6690883929|C,5.7048468097,-0.0894
 494447,-0.4774982296|C,-0.4254459399,3.2498271764,-1.4846635166|C,-0.5
 906784324,4.0704532509,0.899003857|H,-0.3983317805,0.564620104,-1.4325
 114382|H,0.3898440426,1.5424947209,0.6262876581|H,1.2928080236,-0.9576
 387964,-1.7772944083|H,2.1852688518,-1.1792828394,2.4136214958|H,4.547
 7779908,-0.6693739749,1.9332974649|H,3.6316970296,-0.3667632673,-2.243
 3113044|H,0.0882300715,-2.2819793773,1.1698502252|H,-2.1268300338,3.02
 80911218,-0.1879871236|H,-1.0796847938,0.6551477065,2.1305517355|H,5.9
 851112593,-0.3473421237,-1.5010419348|H,5.8674051955,0.9867887471,-0.3
 540702165|H,6.3901178956,-0.6025147161,0.2011801782|H,0.6616405849,3.1
 0906906,-1.4766746358|H,-0.8526392301,2.6045317298,-2.2556240585|H,-0.
 616589912,4.2822798923,-1.7876243855|H,0.5004756754,4.0795899413,1.004
 8750066|H,-0.8976366276,5.0602553243,0.5502142606|H,-1.0278179455,3.90
 34596694,1.8836102456||Version=IA32W-G09RevD.01|State=1-A|HF=-1323.330
 6363|RMSD=8.808e-009|RMSF=7.576e-006|Dipole=3.4767303,-0.0657759,0.341
 4834|Quadrupole=-9.4889445,2.7566557,6.7322888,-2.2284686,-3.0609904,-
 4.2690834|PG=C01 [X(C15H18Cl1N1O3)]||@


 THE RED LIGHT IS ALWAYS LONGER THAN THE GREEN LIGHT.

                     -- PETER'S THEORY OF RELATIVITY
 Job cpu time:       0 days  6 hours 24 minutes 40.0 seconds.
 File lengths (MBytes):  RWF=    195 Int=      0 D2E=      0 Chk=     22 Scr=      1
 Normal termination of Gaussian 09 at Thu Jul 04 22:13:44 2019.
