 Entering Link 1 = C:\G09W\l1.exe PID=      3748.
  
 Copyright (c) 1988,1990,1992,1993,1995,1998,2003,2009,2013,
            Gaussian, Inc.  All Rights Reserved.
  
 This is part of the Gaussian(R) 09 program.  It is based on
 the Gaussian(R) 03 system (copyright 2003, Gaussian, Inc.),
 the Gaussian(R) 98 system (copyright 1998, Gaussian, Inc.),
 the Gaussian(R) 94 system (copyright 1995, Gaussian, Inc.),
 the Gaussian 92(TM) system (copyright 1992, Gaussian, Inc.),
 the Gaussian 90(TM) system (copyright 1990, Gaussian, Inc.),
 the Gaussian 88(TM) system (copyright 1988, Gaussian, Inc.),
 the Gaussian 86(TM) system (copyright 1986, Carnegie Mellon
 University), and the Gaussian 82(TM) system (copyright 1983,
 Carnegie Mellon University). Gaussian is a federally registered
 trademark of Gaussian, Inc.
  
 This software contains proprietary and confidential information,
 including trade secrets, belonging to Gaussian, Inc.
  
 This software is provided under written license and may be
 used, copied, transmitted, or stored only in accord with that
 written license.
  
 The following legend is applicable only to US Government
 contracts under FAR:
  
                    RESTRICTED RIGHTS LEGEND
  
 Use, reproduction and disclosure by the US Government is
 subject to restrictions as set forth in subparagraphs (a)
 and (c) of the Commercial Computer Software - Restricted
 Rights clause in FAR 52.227-19.
  
 Gaussian, Inc.
 340 Quinnipiac St., Bldg. 40, Wallingford CT 06492
  
  
 ---------------------------------------------------------------
 Warning -- This program may not be used in any manner that
 competes with the business of Gaussian, Inc. or will provide
 assistance to any competitor of Gaussian, Inc.  The licensee
 of this program is prohibited from giving any competitor of
 Gaussian, Inc. access to this program.  By using this program,
 the user acknowledges that Gaussian, Inc. is engaged in the
 business of creating and licensing software in the field of
 computational chemistry and represents and warrants to the
 licensee that it is not a competitor of Gaussian, Inc. and that
 it will not use this program in any manner prohibited above.
 ---------------------------------------------------------------
  

 Cite this work as:
 Gaussian 09, Revision D.01,
 M. J. Frisch, G. W. Trucks, H. B. Schlegel, G. E. Scuseria, 
 M. A. Robb, J. R. Cheeseman, G. Scalmani, V. Barone, B. Mennucci, 
 G. A. Petersson, H. Nakatsuji, M. Caricato, X. Li, H. P. Hratchian, 
 A. F. Izmaylov, J. Bloino, G. Zheng, J. L. Sonnenberg, M. Hada, 
 M. Ehara, K. Toyota, R. Fukuda, J. Hasegawa, M. Ishida, T. Nakajima, 
 Y. Honda, O. Kitao, H. Nakai, T. Vreven, J. A. Montgomery, Jr., 
 J. E. Peralta, F. Ogliaro, M. Bearpark, J. J. Heyd, E. Brothers, 
 K. N. Kudin, V. N. Staroverov, T. Keith, R. Kobayashi, J. Normand, 
 K. Raghavachari, A. Rendell, J. C. Burant, S. S. Iyengar, J. Tomasi, 
 M. Cossi, N. Rega, J. M. Millam, M. Klene, J. E. Knox, J. B. Cross, 
 V. Bakken, C. Adamo, J. Jaramillo, R. Gomperts, R. E. Stratmann, 
 O. Yazyev, A. J. Austin, R. Cammi, C. Pomelli, J. W. Ochterski, 
 R. L. Martin, K. Morokuma, V. G. Zakrzewski, G. A. Voth, 
 P. Salvador, J. J. Dannenberg, S. Dapprich, A. D. Daniels, 
 O. Farkas, J. B. Foresman, J. V. Ortiz, J. Cioslowski, 
 and D. J. Fox, Gaussian, Inc., Wallingford CT, 2013.
 
 ******************************************
 Gaussian 09:  IA32W-G09RevD.01 24-Apr-2013
                05-Jul-2019 
 ******************************************
 %nprocshared=4
 Will use up to    4 processors via shared memory.
 %mem=1600MB
 ----------------------------------------------------
 #p opt b3lyp/6-311++g(d,p) pop=nbo geom=connectivity
 ----------------------------------------------------
 1/14=-1,18=20,19=15,26=3,38=1,57=2/1,3;
 2/9=110,12=2,17=6,18=5,40=1/2;
 3/5=4,6=6,7=1111,11=2,16=1,25=1,30=1,71=1,74=-5/1,2,3;
 4//1;
 5/5=2,38=5/2;
 6/7=2,8=2,9=2,10=2,28=1,40=1/1,7;
 7//1,2,3,16;
 1/14=-1,18=20,19=15,26=3/3(2);
 2/9=110/2;
 99//99;
 2/9=110/2;
 3/5=4,6=6,7=1111,11=2,16=1,25=1,30=1,71=1,74=-5/1,2,3;
 4/5=5,16=3,69=1/1;
 5/5=2,38=5/2;
 7//1,2,3,16;
 1/14=-1,18=20,19=15,26=3/3(-5);
 2/9=110/2;
 6/7=2,8=2,9=2,10=2,19=2,28=1,40=1/1,7;
 99/9=1/99;
 Leave Link    1 at Fri Jul 05 09:45:32 2019, MaxMem=   209715200 cpu:         0.0
 (Enter C:\G09W\l101.exe)
 -------
 9ab.log
 -------
 Symbolic Z-matrix:
 Charge =  0 Multiplicity = 1
 C                     1.84937  -1.33865  -1.05844 
 C                     1.40579  -1.48822   0.24628 
 C                     2.31733  -1.39628   1.28685 
 C                     3.65267  -1.15141   1.0228 
 C                     4.10856  -0.97654  -0.27961 
 C                     3.18516  -1.07406  -1.31271 
 N                     0.03849  -1.7784    0.54557 
 C                    -1.00969  -1.08835   0.01644 
 C                    -2.24566  -1.51472  -0.2227 
 C                    -0.97533   0.40044  -0.26043 
 C                    -3.07347  -0.39615  -0.68788 
 O                    -2.27265   0.68458  -0.73461 
 Cl                   -2.85231  -3.10968  -0.02267 
 O                    -4.20938  -0.37658  -1.00202 
 C                    -0.65968   1.23709   0.98865 
 C                    -0.89057   2.73214   0.77556 
 O                    -1.48469   0.86312   2.05732 
 C                     5.56102  -0.66984  -0.55753 
 C                    -0.11604   3.40791  -0.36596 
 C                     1.40462   3.29036  -0.20885 
 C                    -0.52924   4.88023  -0.45899 
 H                    -0.26999   0.6363   -1.04614 
 H                     0.38176   1.05424   1.23811 
 H                     1.15693  -1.44122  -1.87556 
 H                     1.97574  -1.5183    2.29929 
 H                     4.34686  -1.08819   1.84276 
 H                     3.51099  -0.95798  -2.33167 
 H                    -0.15745  -2.74071   0.72295 
 H                    -1.95446   2.87208   0.62301 
 H                    -0.64185   3.21795   1.71564 
 H                    -1.20722   0.03634   2.41658 
 H                     5.84152  -0.97087  -1.56017 
 H                     5.75523   0.39531  -0.46601 
 H                     6.2113   -1.1834    0.14171 
 H                    -0.39941   2.93725  -1.30561 
 H                     1.91444   3.82877  -1.00215 
 H                     1.72945   3.71401   0.7386 
 H                     1.74955   2.26146  -0.24571 
 H                    -0.03141   5.37288  -1.28879 
 H                    -1.59987   4.97863  -0.60704 
 H                    -0.26771   5.41618   0.45014 
 
 NAtoms=     41 NQM=       41 NQMF=       0 NMMI=      0 NMMIF=      0
                NMic=       0 NMicF=      0.
                    Isotopes and Nuclear Properties:
 (Nuclear quadrupole moments (NQMom) in fm**2, nuclear magnetic moments (NMagM)
  in nuclear magnetons)

  Atom         1           2           3           4           5           6           7           8           9          10
 IAtWgt=          12          12          12          12          12          12          14          12          12          12
 AtmWgt=  12.0000000  12.0000000  12.0000000  12.0000000  12.0000000  12.0000000  14.0030740  12.0000000  12.0000000  12.0000000
 NucSpn=           0           0           0           0           0           0           2           0           0           0
 AtZEff=   0.0000000   0.0000000   0.0000000   0.0000000   0.0000000   0.0000000   0.0000000   0.0000000   0.0000000   0.0000000
 NQMom=    0.0000000   0.0000000   0.0000000   0.0000000   0.0000000   0.0000000   2.0440000   0.0000000   0.0000000   0.0000000
 NMagM=    0.0000000   0.0000000   0.0000000   0.0000000   0.0000000   0.0000000   0.4037610   0.0000000   0.0000000   0.0000000
 AtZNuc=   6.0000000   6.0000000   6.0000000   6.0000000   6.0000000   6.0000000   7.0000000   6.0000000   6.0000000   6.0000000

  Atom        11          12          13          14          15          16          17          18          19          20
 IAtWgt=          12          16          35          16          12          12          16          12          12          12
 AtmWgt=  12.0000000  15.9949146  34.9688527  15.9949146  12.0000000  12.0000000  15.9949146  12.0000000  12.0000000  12.0000000
 NucSpn=           0           0           3           0           0           0           0           0           0           0
 AtZEff=   0.0000000   0.0000000   0.0000000   0.0000000   0.0000000   0.0000000   0.0000000   0.0000000   0.0000000   0.0000000
 NQMom=    0.0000000   0.0000000  -8.1650000   0.0000000   0.0000000   0.0000000   0.0000000   0.0000000   0.0000000   0.0000000
 NMagM=    0.0000000   0.0000000   0.8218740   0.0000000   0.0000000   0.0000000   0.0000000   0.0000000   0.0000000   0.0000000
 AtZNuc=   6.0000000   8.0000000  17.0000000   8.0000000   6.0000000   6.0000000   8.0000000   6.0000000   6.0000000   6.0000000

  Atom        21          22          23          24          25          26          27          28          29          30
 IAtWgt=          12           1           1           1           1           1           1           1           1           1
 AtmWgt=  12.0000000   1.0078250   1.0078250   1.0078250   1.0078250   1.0078250   1.0078250   1.0078250   1.0078250   1.0078250
 NucSpn=           0           1           1           1           1           1           1           1           1           1
 AtZEff=   0.0000000   0.0000000   0.0000000   0.0000000   0.0000000   0.0000000   0.0000000   0.0000000   0.0000000   0.0000000
 NQMom=    0.0000000   0.0000000   0.0000000   0.0000000   0.0000000   0.0000000   0.0000000   0.0000000   0.0000000   0.0000000
 NMagM=    0.0000000   2.7928460   2.7928460   2.7928460   2.7928460   2.7928460   2.7928460   2.7928460   2.7928460   2.7928460
 AtZNuc=   6.0000000   1.0000000   1.0000000   1.0000000   1.0000000   1.0000000   1.0000000   1.0000000   1.0000000   1.0000000

  Atom        31          32          33          34          35          36          37          38          39          40
 IAtWgt=           1           1           1           1           1           1           1           1           1           1
 AtmWgt=   1.0078250   1.0078250   1.0078250   1.0078250   1.0078250   1.0078250   1.0078250   1.0078250   1.0078250   1.0078250
 NucSpn=           1           1           1           1           1           1           1           1           1           1
 AtZEff=   0.0000000   0.0000000   0.0000000   0.0000000   0.0000000   0.0000000   0.0000000   0.0000000   0.0000000   0.0000000
 NQMom=    0.0000000   0.0000000   0.0000000   0.0000000   0.0000000   0.0000000   0.0000000   0.0000000   0.0000000   0.0000000
 NMagM=    2.7928460   2.7928460   2.7928460   2.7928460   2.7928460   2.7928460   2.7928460   2.7928460   2.7928460   2.7928460
 AtZNuc=   1.0000000   1.0000000   1.0000000   1.0000000   1.0000000   1.0000000   1.0000000   1.0000000   1.0000000   1.0000000

  Atom        41
 IAtWgt=           1
 AtmWgt=   1.0078250
 NucSpn=           1
 AtZEff=   0.0000000
 NQMom=    0.0000000
 NMagM=    2.7928460
 AtZNuc=   1.0000000
 Leave Link  101 at Fri Jul 05 09:45:33 2019, MaxMem=   209715200 cpu:         0.0
 (Enter C:\G09W\l103.exe)

 GradGradGradGradGradGradGradGradGradGradGradGradGradGradGradGradGradGrad
 Berny optimization.
 Initialization pass.
                           ----------------------------
                           !    Initial Parameters    !
                           ! (Angstroms and Degrees)  !
 --------------------------                            --------------------------
 ! Name  Definition              Value          Derivative Info.                !
 --------------------------------------------------------------------------------
 ! R1    R(1,2)                  1.3862         estimate D2E/DX2                !
 ! R2    R(1,6)                  1.3853         estimate D2E/DX2                !
 ! R3    R(1,24)                 1.076          estimate D2E/DX2                !
 ! R4    R(2,3)                  1.3864         estimate D2E/DX2                !
 ! R5    R(2,7)                  1.4294         estimate D2E/DX2                !
 ! R6    R(3,4)                  1.383          estimate D2E/DX2                !
 ! R7    R(3,25)                 1.0755         estimate D2E/DX2                !
 ! R8    R(4,5)                  1.3909         estimate D2E/DX2                !
 ! R9    R(4,26)                 1.0762         estimate D2E/DX2                !
 ! R10   R(5,6)                  1.3891         estimate D2E/DX2                !
 ! R11   R(5,18)                 1.5103         estimate D2E/DX2                !
 ! R12   R(6,27)                 1.0761         estimate D2E/DX2                !
 ! R13   R(7,8)                  1.3619         estimate D2E/DX2                !
 ! R14   R(7,28)                 0.9979         estimate D2E/DX2                !
 ! R15   R(8,9)                  1.3291         estimate D2E/DX2                !
 ! R16   R(8,10)                 1.5147         estimate D2E/DX2                !
 ! R17   R(9,11)                 1.4673         estimate D2E/DX2                !
 ! R18   R(9,13)                 1.7181         estimate D2E/DX2                !
 ! R19   R(10,12)                1.4102         estimate D2E/DX2                !
 ! R20   R(10,15)                1.5362         estimate D2E/DX2                !
 ! R21   R(10,22)                1.0819         estimate D2E/DX2                !
 ! R22   R(11,12)                1.3459         estimate D2E/DX2                !
 ! R23   R(11,14)                1.1787         estimate D2E/DX2                !
 ! R24   R(15,16)                1.5277         estimate D2E/DX2                !
 ! R25   R(15,17)                1.4009         estimate D2E/DX2                !
 ! R26   R(15,23)                1.0864         estimate D2E/DX2                !
 ! R27   R(16,19)                1.5361         estimate D2E/DX2                !
 ! R28   R(16,29)                1.0838         estimate D2E/DX2                !
 ! R29   R(16,30)                1.087          estimate D2E/DX2                !
 ! R30   R(17,31)                0.9432         estimate D2E/DX2                !
 ! R31   R(18,32)                1.0838         estimate D2E/DX2                !
 ! R32   R(18,33)                1.0866         estimate D2E/DX2                !
 ! R33   R(18,34)                1.0842         estimate D2E/DX2                !
 ! R34   R(19,20)                1.5333         estimate D2E/DX2                !
 ! R35   R(19,21)                1.532          estimate D2E/DX2                !
 ! R36   R(19,35)                1.0885         estimate D2E/DX2                !
 ! R37   R(20,36)                1.0859         estimate D2E/DX2                !
 ! R38   R(20,37)                1.0875         estimate D2E/DX2                !
 ! R39   R(20,38)                1.0858         estimate D2E/DX2                !
 ! R40   R(21,39)                1.0859         estimate D2E/DX2                !
 ! R41   R(21,40)                1.0853         estimate D2E/DX2                !
 ! R42   R(21,41)                1.0873         estimate D2E/DX2                !
 ! A1    A(2,1,6)              120.1292         estimate D2E/DX2                !
 ! A2    A(2,1,24)             119.9066         estimate D2E/DX2                !
 ! A3    A(6,1,24)             119.9592         estimate D2E/DX2                !
 ! A4    A(1,2,3)              119.2681         estimate D2E/DX2                !
 ! A5    A(1,2,7)              121.6733         estimate D2E/DX2                !
 ! A6    A(3,2,7)              119.0269         estimate D2E/DX2                !
 ! A7    A(2,3,4)              120.2155         estimate D2E/DX2                !
 ! A8    A(2,3,25)             119.3542         estimate D2E/DX2                !
 ! A9    A(4,3,25)             120.4303         estimate D2E/DX2                !
 ! A10   A(3,4,5)              121.1634         estimate D2E/DX2                !
 ! A11   A(3,4,26)             119.1907         estimate D2E/DX2                !
 ! A12   A(5,4,26)             119.6441         estimate D2E/DX2                !
 ! A13   A(4,5,6)              118.0149         estimate D2E/DX2                !
 ! A14   A(4,5,18)             120.8674         estimate D2E/DX2                !
 ! A15   A(6,5,18)             121.1117         estimate D2E/DX2                !
 ! A16   A(1,6,5)              121.1923         estimate D2E/DX2                !
 ! A17   A(1,6,27)             119.1038         estimate D2E/DX2                !
 ! A18   A(5,6,27)             119.697          estimate D2E/DX2                !
 ! A19   A(2,7,8)              123.5029         estimate D2E/DX2                !
 ! A20   A(2,7,28)             114.8832         estimate D2E/DX2                !
 ! A21   A(8,7,28)             113.9869         estimate D2E/DX2                !
 ! A22   A(7,8,9)              128.5394         estimate D2E/DX2                !
 ! A23   A(7,8,10)             123.4743         estimate D2E/DX2                !
 ! A24   A(9,8,10)             107.6684         estimate D2E/DX2                !
 ! A25   A(8,9,11)             109.7018         estimate D2E/DX2                !
 ! A26   A(8,9,13)             127.2423         estimate D2E/DX2                !
 ! A27   A(11,9,13)            123.0526         estimate D2E/DX2                !
 ! A28   A(8,10,12)            103.8063         estimate D2E/DX2                !
 ! A29   A(8,10,15)            113.038          estimate D2E/DX2                !
 ! A30   A(8,10,22)            111.2116         estimate D2E/DX2                !
 ! A31   A(12,10,15)           110.653          estimate D2E/DX2                !
 ! A32   A(12,10,22)           108.1591         estimate D2E/DX2                !
 ! A33   A(15,10,22)           109.7441         estimate D2E/DX2                !
 ! A34   A(9,11,12)            106.7065         estimate D2E/DX2                !
 ! A35   A(9,11,14)            129.8551         estimate D2E/DX2                !
 ! A36   A(12,11,14)           123.4227         estimate D2E/DX2                !
 ! A37   A(10,12,11)           111.957          estimate D2E/DX2                !
 ! A38   A(10,15,16)           112.8622         estimate D2E/DX2                !
 ! A39   A(10,15,17)           110.7246         estimate D2E/DX2                !
 ! A40   A(10,15,23)           106.979          estimate D2E/DX2                !
 ! A41   A(16,15,17)           106.1792         estimate D2E/DX2                !
 ! A42   A(16,15,23)           109.9753         estimate D2E/DX2                !
 ! A43   A(17,15,23)           110.148          estimate D2E/DX2                !
 ! A44   A(15,16,19)           117.2563         estimate D2E/DX2                !
 ! A45   A(15,16,29)           107.1176         estimate D2E/DX2                !
 ! A46   A(15,16,30)           106.389          estimate D2E/DX2                !
 ! A47   A(19,16,29)           109.4834         estimate D2E/DX2                !
 ! A48   A(19,16,30)           109.311          estimate D2E/DX2                !
 ! A49   A(29,16,30)           106.775          estimate D2E/DX2                !
 ! A50   A(15,17,31)           110.5679         estimate D2E/DX2                !
 ! A51   A(5,18,32)            111.2689         estimate D2E/DX2                !
 ! A52   A(5,18,33)            110.8218         estimate D2E/DX2                !
 ! A53   A(5,18,34)            111.2191         estimate D2E/DX2                !
 ! A54   A(32,18,33)           107.695          estimate D2E/DX2                !
 ! A55   A(32,18,34)           108.0498         estimate D2E/DX2                !
 ! A56   A(33,18,34)           107.6259         estimate D2E/DX2                !
 ! A57   A(16,19,20)           112.9661         estimate D2E/DX2                !
 ! A58   A(16,19,21)           109.3851         estimate D2E/DX2                !
 ! A59   A(16,19,35)           108.6652         estimate D2E/DX2                !
 ! A60   A(20,19,21)           110.3276         estimate D2E/DX2                !
 ! A61   A(20,19,35)           108.2703         estimate D2E/DX2                !
 ! A62   A(21,19,35)           107.0332         estimate D2E/DX2                !
 ! A63   A(19,20,36)           110.6565         estimate D2E/DX2                !
 ! A64   A(19,20,37)           110.8328         estimate D2E/DX2                !
 ! A65   A(19,20,38)           112.5957         estimate D2E/DX2                !
 ! A66   A(36,20,37)           107.6428         estimate D2E/DX2                !
 ! A67   A(36,20,38)           107.2116         estimate D2E/DX2                !
 ! A68   A(37,20,38)           107.6886         estimate D2E/DX2                !
 ! A69   A(19,21,39)           111.0243         estimate D2E/DX2                !
 ! A70   A(19,21,40)           111.1907         estimate D2E/DX2                !
 ! A71   A(19,21,41)           110.9819         estimate D2E/DX2                !
 ! A72   A(39,21,40)           107.8722         estimate D2E/DX2                !
 ! A73   A(39,21,41)           107.762          estimate D2E/DX2                !
 ! A74   A(40,21,41)           107.858          estimate D2E/DX2                !
 ! D1    D(6,1,2,3)             -1.2653         estimate D2E/DX2                !
 ! D2    D(6,1,2,7)           -179.1968         estimate D2E/DX2                !
 ! D3    D(24,1,2,3)           177.9263         estimate D2E/DX2                !
 ! D4    D(24,1,2,7)            -0.0052         estimate D2E/DX2                !
 ! D5    D(2,1,6,5)              1.1475         estimate D2E/DX2                !
 ! D6    D(2,1,6,27)          -179.8117         estimate D2E/DX2                !
 ! D7    D(24,1,6,5)          -178.0437         estimate D2E/DX2                !
 ! D8    D(24,1,6,27)            0.9972         estimate D2E/DX2                !
 ! D9    D(1,2,3,4)              0.3145         estimate D2E/DX2                !
 ! D10   D(1,2,3,25)          -179.6159         estimate D2E/DX2                !
 ! D11   D(7,2,3,4)            178.3012         estimate D2E/DX2                !
 ! D12   D(7,2,3,25)            -1.6293         estimate D2E/DX2                !
 ! D13   D(1,2,7,8)            -49.1785         estimate D2E/DX2                !
 ! D14   D(1,2,7,28)            98.4347         estimate D2E/DX2                !
 ! D15   D(3,2,7,8)            132.8852         estimate D2E/DX2                !
 ! D16   D(3,2,7,28)           -79.5016         estimate D2E/DX2                !
 ! D17   D(2,3,4,5)              0.7854         estimate D2E/DX2                !
 ! D18   D(2,3,4,26)          -179.6942         estimate D2E/DX2                !
 ! D19   D(25,3,4,5)          -179.2849         estimate D2E/DX2                !
 ! D20   D(25,3,4,26)            0.2354         estimate D2E/DX2                !
 ! D21   D(3,4,5,6)             -0.906          estimate D2E/DX2                !
 ! D22   D(3,4,5,18)           178.2154         estimate D2E/DX2                !
 ! D23   D(26,4,5,6)           179.5758         estimate D2E/DX2                !
 ! D24   D(26,4,5,18)           -1.3028         estimate D2E/DX2                !
 ! D25   D(4,5,6,1)             -0.059          estimate D2E/DX2                !
 ! D26   D(4,5,6,27)          -179.0942         estimate D2E/DX2                !
 ! D27   D(18,5,6,1)          -179.1782         estimate D2E/DX2                !
 ! D28   D(18,5,6,27)            1.7866         estimate D2E/DX2                !
 ! D29   D(4,5,18,32)          155.8798         estimate D2E/DX2                !
 ! D30   D(4,5,18,33)          -84.3191         estimate D2E/DX2                !
 ! D31   D(4,5,18,34)           35.3621         estimate D2E/DX2                !
 ! D32   D(6,5,18,32)          -25.0262         estimate D2E/DX2                !
 ! D33   D(6,5,18,33)           94.7749         estimate D2E/DX2                !
 ! D34   D(6,5,18,34)         -145.5439         estimate D2E/DX2                !
 ! D35   D(2,7,8,9)            151.4687         estimate D2E/DX2                !
 ! D36   D(2,7,8,10)           -35.8261         estimate D2E/DX2                !
 ! D37   D(28,7,8,9)             3.5984         estimate D2E/DX2                !
 ! D38   D(28,7,8,10)          176.3036         estimate D2E/DX2                !
 ! D39   D(7,8,9,11)           175.0176         estimate D2E/DX2                !
 ! D40   D(7,8,9,13)            -4.3322         estimate D2E/DX2                !
 ! D41   D(10,8,9,11)            1.3996         estimate D2E/DX2                !
 ! D42   D(10,8,9,13)         -177.9501         estimate D2E/DX2                !
 ! D43   D(7,8,10,12)         -177.3114         estimate D2E/DX2                !
 ! D44   D(7,8,10,15)          -57.3655         estimate D2E/DX2                !
 ! D45   D(7,8,10,22)           66.6087         estimate D2E/DX2                !
 ! D46   D(9,8,10,12)           -3.2944         estimate D2E/DX2                !
 ! D47   D(9,8,10,15)          116.6514         estimate D2E/DX2                !
 ! D48   D(9,8,10,22)         -119.3743         estimate D2E/DX2                !
 ! D49   D(8,9,11,12)            1.1314         estimate D2E/DX2                !
 ! D50   D(8,9,11,14)          179.7017         estimate D2E/DX2                !
 ! D51   D(13,9,11,12)        -179.4862         estimate D2E/DX2                !
 ! D52   D(13,9,11,14)          -0.9159         estimate D2E/DX2                !
 ! D53   D(8,10,12,11)           4.1467         estimate D2E/DX2                !
 ! D54   D(15,10,12,11)       -117.4064         estimate D2E/DX2                !
 ! D55   D(22,10,12,11)        122.3568         estimate D2E/DX2                !
 ! D56   D(8,10,15,16)        -168.8351         estimate D2E/DX2                !
 ! D57   D(8,10,15,17)         -49.9633         estimate D2E/DX2                !
 ! D58   D(8,10,15,23)          70.0755         estimate D2E/DX2                !
 ! D59   D(12,10,15,16)        -52.8954         estimate D2E/DX2                !
 ! D60   D(12,10,15,17)         65.9764         estimate D2E/DX2                !
 ! D61   D(12,10,15,23)       -173.9848         estimate D2E/DX2                !
 ! D62   D(22,10,15,16)         66.3895         estimate D2E/DX2                !
 ! D63   D(22,10,15,17)       -174.7388         estimate D2E/DX2                !
 ! D64   D(22,10,15,23)        -54.7            estimate D2E/DX2                !
 ! D65   D(9,11,12,10)          -3.4236         estimate D2E/DX2                !
 ! D66   D(14,11,12,10)        177.8914         estimate D2E/DX2                !
 ! D67   D(10,15,16,19)        -57.5947         estimate D2E/DX2                !
 ! D68   D(10,15,16,29)         65.8577         estimate D2E/DX2                !
 ! D69   D(10,15,16,30)        179.7713         estimate D2E/DX2                !
 ! D70   D(17,15,16,19)       -179.0757         estimate D2E/DX2                !
 ! D71   D(17,15,16,29)        -55.6233         estimate D2E/DX2                !
 ! D72   D(17,15,16,30)         58.2903         estimate D2E/DX2                !
 ! D73   D(23,15,16,19)         61.7763         estimate D2E/DX2                !
 ! D74   D(23,15,16,29)       -174.7713         estimate D2E/DX2                !
 ! D75   D(23,15,16,30)        -60.8577         estimate D2E/DX2                !
 ! D76   D(10,15,17,31)         74.6662         estimate D2E/DX2                !
 ! D77   D(16,15,17,31)       -162.4934         estimate D2E/DX2                !
 ! D78   D(23,15,17,31)        -43.4588         estimate D2E/DX2                !
 ! D79   D(15,16,19,20)        -59.2979         estimate D2E/DX2                !
 ! D80   D(15,16,19,21)        177.3982         estimate D2E/DX2                !
 ! D81   D(15,16,19,35)         60.8706         estimate D2E/DX2                !
 ! D82   D(29,16,19,20)        178.4618         estimate D2E/DX2                !
 ! D83   D(29,16,19,21)         55.158          estimate D2E/DX2                !
 ! D84   D(29,16,19,35)        -61.3697         estimate D2E/DX2                !
 ! D85   D(30,16,19,20)         61.8228         estimate D2E/DX2                !
 ! D86   D(30,16,19,21)        -61.481          estimate D2E/DX2                !
 ! D87   D(30,16,19,35)       -178.0087         estimate D2E/DX2                !
 ! D88   D(16,19,20,36)       -176.6961         estimate D2E/DX2                !
 ! D89   D(16,19,20,37)        -57.3542         estimate D2E/DX2                !
 ! D90   D(16,19,20,38)         63.3422         estimate D2E/DX2                !
 ! D91   D(21,19,20,36)        -53.9155         estimate D2E/DX2                !
 ! D92   D(21,19,20,37)         65.4264         estimate D2E/DX2                !
 ! D93   D(21,19,20,38)       -173.8772         estimate D2E/DX2                !
 ! D94   D(35,19,20,36)         62.9096         estimate D2E/DX2                !
 ! D95   D(35,19,20,37)       -177.7486         estimate D2E/DX2                !
 ! D96   D(35,19,20,38)        -57.0522         estimate D2E/DX2                !
 ! D97   D(16,19,21,39)       -177.3333         estimate D2E/DX2                !
 ! D98   D(16,19,21,40)        -57.2251         estimate D2E/DX2                !
 ! D99   D(16,19,21,41)         62.8366         estimate D2E/DX2                !
 ! D100  D(20,19,21,39)         57.8148         estimate D2E/DX2                !
 ! D101  D(20,19,21,40)        177.9229         estimate D2E/DX2                !
 ! D102  D(20,19,21,41)        -62.0153         estimate D2E/DX2                !
 ! D103  D(35,19,21,39)        -59.7761         estimate D2E/DX2                !
 ! D104  D(35,19,21,40)         60.3321         estimate D2E/DX2                !
 ! D105  D(35,19,21,41)       -179.6062         estimate D2E/DX2                !
 --------------------------------------------------------------------------------
 Trust Radius=3.00D-01 FncErr=1.00D-07 GrdErr=1.00D-06
 Number of steps in this run=    231 maximum allowed number of steps=    246.
 GradGradGradGradGradGradGradGradGradGradGradGradGradGradGradGradGradGrad

 Leave Link  103 at Fri Jul 05 09:45:33 2019, MaxMem=   209715200 cpu:         0.0
 (Enter C:\G09W\l202.exe)
                          Input orientation:                          
 ---------------------------------------------------------------------
 Center     Atomic      Atomic             Coordinates (Angstroms)
 Number     Number       Type             X           Y           Z
 ---------------------------------------------------------------------
      1          6           0        1.849368   -1.338647   -1.058441
      2          6           0        1.405790   -1.488223    0.246281
      3          6           0        2.317333   -1.396283    1.286846
      4          6           0        3.652674   -1.151414    1.022798
      5          6           0        4.108564   -0.976544   -0.279609
      6          6           0        3.185164   -1.074062   -1.312713
      7          7           0        0.038485   -1.778398    0.545570
      8          6           0       -1.009693   -1.088349    0.016444
      9          6           0       -2.245659   -1.514722   -0.222702
     10          6           0       -0.975332    0.400443   -0.260431
     11          6           0       -3.073465   -0.396151   -0.687879
     12          8           0       -2.272648    0.684584   -0.734605
     13         17           0       -2.852309   -3.109676   -0.022666
     14          8           0       -4.209383   -0.376583   -1.002021
     15          6           0       -0.659678    1.237086    0.988653
     16          6           0       -0.890565    2.732141    0.775562
     17          8           0       -1.484687    0.863115    2.057318
     18          6           0        5.561021   -0.669844   -0.557534
     19          6           0       -0.116044    3.407912   -0.365964
     20          6           0        1.404623    3.290358   -0.208849
     21          6           0       -0.529235    4.880233   -0.458989
     22          1           0       -0.269986    0.636298   -1.046138
     23          1           0        0.381755    1.054239    1.238111
     24          1           0        1.156927   -1.441217   -1.875555
     25          1           0        1.975736   -1.518296    2.299290
     26          1           0        4.346860   -1.088189    1.842764
     27          1           0        3.510989   -0.957980   -2.331665
     28          1           0       -0.157452   -2.740711    0.722946
     29          1           0       -1.954459    2.872078    0.623011
     30          1           0       -0.641850    3.217949    1.715635
     31          1           0       -1.207218    0.036343    2.416579
     32          1           0        5.841520   -0.970873   -1.560166
     33          1           0        5.755230    0.395311   -0.466010
     34          1           0        6.211301   -1.183398    0.141706
     35          1           0       -0.399407    2.937251   -1.305611
     36          1           0        1.914444    3.828774   -1.002147
     37          1           0        1.729449    3.714006    0.738597
     38          1           0        1.749546    2.261457   -0.245714
     39          1           0       -0.031405    5.372883   -1.288788
     40          1           0       -1.599871    4.978630   -0.607036
     41          1           0       -0.267708    5.416178    0.450143
 ---------------------------------------------------------------------
                    Distance matrix (angstroms):
                    1          2          3          4          5
     1  C    0.000000
     2  C    1.386158   0.000000
     3  C    2.392213   1.386412   0.000000
     4  C    2.760167   2.401022   1.383047   0.000000
     5  C    2.416954   2.800600   2.416293   1.390927   0.000000
     6  C    1.385284   2.401700   2.759468   2.383099   1.389058
     7  N    2.458766   1.429440   2.426654   3.699083   4.229590
     8  C    3.064679   2.459122   3.574611   4.770156   5.128031
     9  C    4.183146   3.681539   4.807667   6.039337   6.377227
    10  C    3.411771   3.081162   4.057577   5.047116   5.267111
    11  C    5.025923   4.704147   5.827564   6.981245   7.216999
    12  O    4.603189   4.383393   5.429935   6.447387   6.609556
    13  Cl   5.129828   4.564302   5.601405   6.873324   7.284918
    14  O    6.134918   5.858683   6.991189   8.155501   8.370787
    15  C    4.137669   3.499226   3.985743   4.929754   5.407844
    16  C    5.238522   4.833721   5.253181   5.981985   6.313400
    17  O    5.066718   4.142886   4.489305   5.614360   6.334827
    18  C    3.804546   4.310662   3.801442   2.524113   1.510278
    19  C    5.183839   5.163619   5.633240   6.076129   6.089189
    20  C    4.727292   4.800206   5.003473   5.128355   5.052005
    21  C    6.685175   6.693202   7.109539   7.487645   7.472830
    22  H    2.896933   2.998693   4.033413   4.781597   4.728692
    23  H    3.626836   2.914873   3.123123   3.950972   4.507400
    24  H    1.075951   2.136897   3.368878   3.835777   3.387495
    25  H    3.364907   2.130866   1.075462   2.139195   3.390158
    26  H    3.836298   3.370264   2.126722   1.076214   2.138625
    27  H    2.127673   3.370286   3.835433   3.363021   2.137376
    28  H    3.027615   2.059044   2.872287   4.139183   4.724013
    29  H    5.918326   5.517737   6.075178   6.912905   7.237877
    30  H    5.887634   5.338528   5.498342   6.165573   6.643885
    31  H    4.827948   3.723212   3.968775   5.193452   6.045900
    32  H    4.040330   4.817323   4.550423   3.390479   2.154761
    33  H    4.314318   4.792983   4.254580   3.004937   2.151335
    34  H    4.526689   4.816305   4.064438   2.706274   2.154483
    35  H    4.837498   5.025129   5.734198   6.209511   6.057415
    36  H    5.168137   5.485231   5.718656   5.650143   5.331726
    37  H    5.364050   5.235486   5.173127   5.239454   5.357069
    38  H    3.692051   3.797411   4.006268   4.108370   4.006341
    39  H    6.973880   7.176123   7.613939   7.841066   7.646765
    40  H    7.211727   7.182084   7.718212   8.235474   8.255758
    41  H    7.237783   7.107243   7.334312   7.670110   7.781464
                    6          7          8          9         10
     6  C    0.000000
     7  N    3.721679   0.000000
     8  C    4.400419   1.361917   0.000000
     9  C    5.556631   2.424269   1.329134   0.000000
    10  C    4.537752   2.534721   1.514709   2.298480   0.000000
    11  C    6.326169   3.621634   2.287873   1.467261   2.284608
    12  O    5.763224   3.611989   2.302699   2.258256   1.410179
    13  Cl   6.500694   3.232937   2.735421   1.718114   3.987544
    14  O    7.433864   4.733340   3.432477   2.399773   3.407757
    15  C    5.041875   3.126803   2.544671   3.399289   1.536170
    16  C    5.954800   4.610964   3.896998   4.568222   2.552897
    17  O    6.075959   3.403384   2.863389   3.381077   2.417740
    18  C    2.525546   5.739698   6.609000   7.859401   6.630060
    19  C    5.646450   5.268072   4.600131   5.365455   3.129598
    20  C    4.841178   5.303562   5.005273   6.034364   3.744123
    21  C    7.069599   6.757870   6.006734   6.625511   4.506323
    22  H    3.864512   2.908513   2.156538   3.034505   1.081885
    23  H    4.346892   2.936202   2.831834   3.954344   2.124797
    24  H    2.136665   2.688206   2.898002   3.783506   3.247594
    25  H    3.834922   2.626048   3.782727   4.917381   4.352302
    26  H    3.362554   4.552054   5.659338   6.921661   5.913136
    27  H    1.076058   4.583650   5.095800   6.156028   5.124685
    28  H    4.253788   0.997948   1.988909   2.599598   3.391579
    29  H    6.762749   5.060114   4.116490   4.477057   2.801453
    30  H    6.499099   5.176426   4.644003   5.359807   3.457512
    31  H    5.868018   2.888899   2.657931   3.232641   2.711590
    32  H    2.669852   6.225868   7.031260   8.215050   7.073845
    33  H    3.079156   6.199151   6.942492   8.229316   6.733703
    34  H    3.359285   6.214563   7.222706   8.471289   7.370072
    35  H    5.379575   5.084876   4.280857   4.939778   2.803477
    36  H    5.074345   6.111876   5.810869   6.816666   4.544711
    37  H    5.408565   5.750054   5.575573   6.638161   4.392448
    38  H    3.784861   4.458059   4.347796   5.497429   3.299780
    39  H    7.204859   7.383128   6.663948   7.312904   5.164656
    40  H    7.747878   7.047704   6.127420   6.536694   4.633571
    41  H    7.559974   7.201721   6.561060   7.238949   5.115002
                   11         12         13         14         15
    11  C    0.000000
    12  O    1.345912   0.000000
    13  Cl   2.802612   3.903751   0.000000
    14  O    1.178719   2.224529   3.204775   0.000000
    15  C    3.362230   2.424159   4.972397   4.378027   0.000000
    16  C    4.085697   2.895384   6.213890   4.882471   1.527713
    17  O    3.412634   2.906474   4.688261   4.280231   1.400907
    18  C    8.639806   7.951868   8.776274   9.784905   6.687613
    19  C    4.829168   3.493330   7.077002   5.610917   2.615915
    20  C    5.820059   4.537488   7.688730   6.752232   3.148218
    21  C    5.862229   4.551804   8.332208   6.439914   3.922398
    22  H    3.008952   2.027323   4.663497   4.067766   2.157123
    23  H    4.213266   3.327778   5.420970   5.305091   1.086391
    24  H    4.516520   4.193183   4.721327   5.540198   4.321695
    25  H    5.973008   5.666213   5.588738   7.103370   4.031787
    26  H    7.870470   7.321437   7.706768   9.044804   5.585860
    27  H    6.809752   6.220858   7.103016   7.855579   5.765179
    28  H    3.998815   4.281490   2.820342   4.998275   4.018171
    29  H    3.694852   2.594127   6.083125   4.275419   2.117392
    30  H    4.975073   3.883441   6.924352   5.747487   2.110128
    31  H    3.647957   3.389000   4.307398   4.568405   1.944365
    32  H    8.975976   8.322368   9.084110  10.083916   7.323738
    33  H    8.866876   8.037577   9.304365  10.008828   6.631416
    34  H    9.354937   8.731247   9.267502  10.514263   7.333922
    35  H    4.317841   2.984893   6.650414   5.058614   2.867394
    36  H    6.544310   5.243019   8.474869   7.428747   4.160076
    37  H    6.480448   5.231109   8.254372   7.418382   3.450448
    38  H    5.524475   4.347826   7.076432   6.560495   2.894367
    39  H    6.549578   5.225939   9.028531   7.112953   4.763012
    40  H    5.573714   4.348302   8.205534   5.970249   4.174846
    41  H    6.553666   5.273651   8.921541   7.155534   4.231837
                   16         17         18         19         20
    16  C    0.000000
    17  O    2.342891   0.000000
    18  C    7.414419   7.670034   0.000000
    19  C    1.536109   3.771137   6.992414   0.000000
    20  C    2.559015   4.401719   5.751559   1.533275   0.000000
    21  C    2.503792   4.835486   8.240406   1.532028   2.515965
    22  H    2.845394   3.340417   5.995447   2.858003   3.247984
    23  H    2.155946   2.047250   5.746442   2.891477   2.853100
    24  H    5.351407   5.268355   4.661356   5.235778   5.022655
    25  H    5.348237   4.207635   4.662144   5.978850   5.453447
    26  H    6.569967   6.153094   2.722247   6.709017   5.660172
    27  H    6.530355   6.894660   2.726389   6.006693   5.195335
    28  H    5.521986   4.065669   6.215227   6.244438   6.299374
    29  H    1.083847   2.512738   8.391742   2.155217   3.485740
    30  H    1.087017   2.524354   7.665366   2.155368   2.810148
    31  H    3.171834   0.943191   7.426514   4.505628   4.929828
    32  H    8.030499   8.373948   1.083775   7.489489   6.298429
    33  H    7.153242   7.681303   1.086577   6.599821   5.232132
    34  H    8.134477   8.190605   1.084222   7.834102   6.575830
    35  H    2.148159   4.097458   7.006958   1.088464   2.140583
    36  H    3.497274   5.450647   5.807992   2.169040   1.085878
    37  H    2.798196   4.494138   5.964817   2.172462   1.087494
    38  H    2.869623   4.209463   4.818412   2.192999   1.085803
    39  H    3.460233   5.800557   8.265864   2.172528   2.750519
    40  H    2.731557   4.904030   9.120641   2.174170   3.469265
    41  H    2.774510   4.979401   8.486999   2.173054   2.783895
                   21         22         23         24         25
    21  C    0.000000
    22  H    4.292195   0.000000
    23  H    4.283489   2.411894   0.000000
    24  H    6.694067   2.653315   4.064863   0.000000
    25  H    7.404334   4.569183   3.206994   4.255082   0.000000
    26  H    8.043409   5.712694   4.547270   4.911843   2.452680
    27  H    7.342687   4.300009   5.156009   2.446050   4.910876
    28  H    7.721009   3.813989   3.867530   3.188806   2.920556
    29  H    2.689735   3.259175   3.023373   5.876059   6.126314
    30  H    2.739500   3.798762   2.440786   6.151428   5.442833
    31  H    5.673784   3.637136   2.224800   5.118084   3.544271
    32  H    8.719779   6.340168   6.460686   4.718697   5.489932
    33  H    7.720691   6.057875   5.675601   5.148208   5.058987
    34  H    9.086434   6.835887   6.339774   5.448166   4.765222
    35  H    2.123394   2.319151   3.259827   4.681666   6.203911
    36  H    2.715171   3.868536   3.881486   5.395320   6.284457
    37  H    2.809973   4.081091   3.023269   5.808433   5.465657
    38  H    3.477976   2.712993   2.351588   4.088689   4.562317
    39  H    1.085866   4.748793   5.020618   6.941786   8.024417
    40  H    1.085293   4.562593   4.767835   7.100951   7.965033
    41  H    1.087269   5.008604   4.479867   7.379859   7.519263
                   26         27         28         29         30
    26  H    0.000000
    27  H    4.259283   0.000000
    28  H    4.926829   5.095708   0.000000
    29  H    7.541759   7.298669   5.894287   0.000000
    30  H    6.591374   7.145984   6.060173   1.742526   0.000000
    31  H    5.695754   6.767272   3.417957   3.437535   3.306596
    32  H    3.718562   2.454944   6.658272   8.961686   8.385177
    33  H    3.084593   3.216937   6.797651   8.170658   7.324581
    34  H    2.525629   3.668796   6.582103   9.130070   8.295468
    35  H    6.974488   5.613983   6.034305   2.478309   3.043928
    36  H    6.179538   5.218198   7.101185   4.304046   3.780752
    37  H    5.579525   5.867525   6.724880   3.780659   2.612228
    38  H    4.725242   4.221214   5.440278   3.853206   3.237366
    39  H    8.409594   7.329118   8.360225   3.688785   3.747391
    40  H    8.841460   8.021133   7.964776   2.465017   3.067996
    41  H    8.095704   7.914979   8.162194   3.057361   2.563916
                   31         32         33         34         35
    31  H    0.000000
    32  H    8.155593   0.000000
    33  H    7.544127   1.752450   0.000000
    34  H    7.854759   1.754501   1.752039   0.000000
    35  H    4.787747   7.367998   6.711628   7.923127   0.000000
    36  H    5.984563   6.226550   5.179551   6.700242   2.498161
    37  H    4.996483   6.643909   5.354599   6.665421   3.051911
    38  H    4.558661   5.377731   4.424538   5.650166   2.489594
    39  H    6.602344   8.649170   7.677130   9.165288   2.463333
    40  H    5.807118   9.574933   8.667422   9.977255   2.469079
    41  H    5.804496   9.064129   7.894569   9.253491   3.040575
                   36         37         38         39         40
    36  H    0.000000
    37  H    1.754305   0.000000
    38  H    1.748103   1.754757   0.000000
    39  H    2.500553   3.156386   3.733733   0.000000
    40  H    3.718695   3.807148   4.328068   1.755080   0.000000
    41  H    3.064439   2.639930   3.808647   1.755447   1.756056
                   41
    41  H    0.000000
 Stoichiometry    C16H20ClNO3
 Framework group  C1[X(C16H20ClNO3)]
 Deg. of freedom   117
 Full point group                 C1      NOp   1
 Largest Abelian subgroup         C1      NOp   1
 Largest concise Abelian subgroup C1      NOp   1
                         Standard orientation:                         
 ---------------------------------------------------------------------
 Center     Atomic      Atomic             Coordinates (Angstroms)
 Number     Number       Type             X           Y           Z
 ---------------------------------------------------------------------
      1          6           0        1.849368   -1.338647   -1.058441
      2          6           0        1.405790   -1.488223    0.246281
      3          6           0        2.317333   -1.396283    1.286846
      4          6           0        3.652674   -1.151414    1.022798
      5          6           0        4.108564   -0.976544   -0.279609
      6          6           0        3.185164   -1.074062   -1.312713
      7          7           0        0.038485   -1.778398    0.545570
      8          6           0       -1.009693   -1.088349    0.016444
      9          6           0       -2.245659   -1.514722   -0.222702
     10          6           0       -0.975332    0.400443   -0.260431
     11          6           0       -3.073465   -0.396151   -0.687879
     12          8           0       -2.272648    0.684584   -0.734605
     13         17           0       -2.852309   -3.109676   -0.022666
     14          8           0       -4.209383   -0.376582   -1.002021
     15          6           0       -0.659678    1.237086    0.988653
     16          6           0       -0.890565    2.732141    0.775562
     17          8           0       -1.484687    0.863115    2.057318
     18          6           0        5.561021   -0.669845   -0.557534
     19          6           0       -0.116044    3.407912   -0.365964
     20          6           0        1.404623    3.290358   -0.208849
     21          6           0       -0.529234    4.880233   -0.458989
     22          1           0       -0.269986    0.636298   -1.046138
     23          1           0        0.381755    1.054239    1.238111
     24          1           0        1.156927   -1.441217   -1.875555
     25          1           0        1.975736   -1.518296    2.299290
     26          1           0        4.346860   -1.088189    1.842764
     27          1           0        3.510989   -0.957980   -2.331665
     28          1           0       -0.157452   -2.740711    0.722946
     29          1           0       -1.954459    2.872078    0.623011
     30          1           0       -0.641850    3.217949    1.715635
     31          1           0       -1.207218    0.036343    2.416579
     32          1           0        5.841520   -0.970874   -1.560166
     33          1           0        5.755230    0.395310   -0.466010
     34          1           0        6.211301   -1.183399    0.141706
     35          1           0       -0.399407    2.937251   -1.305611
     36          1           0        1.914445    3.828774   -1.002147
     37          1           0        1.729450    3.714006    0.738597
     38          1           0        1.749546    2.261457   -0.245714
     39          1           0       -0.031404    5.372883   -1.288788
     40          1           0       -1.599870    4.978630   -0.607036
     41          1           0       -0.267707    5.416178    0.450143
 ---------------------------------------------------------------------
 Rotational constants (GHZ):      0.3105572      0.2189833      0.1460618
 Leave Link  202 at Fri Jul 05 09:45:34 2019, MaxMem=   209715200 cpu:         0.0
 (Enter C:\G09W\l301.exe)
 Standard basis: 6-311++G(d,p) (5D, 7F)
 Ernie: Thresh=  0.10000D-02 Tol=  0.10000D-05 Strict=F.
 There are   631 symmetry adapted cartesian basis functions of A   symmetry.
 There are   610 symmetry adapted basis functions of A   symmetry.
   610 basis functions,   953 primitive gaussians,   631 cartesian basis functions
    82 alpha electrons       82 beta electrons
       nuclear repulsion energy      1867.5578562436 Hartrees.
 IExCor=  402 DFT=T Ex+Corr=B3LYP ExCW=0 ScaHFX=  0.200000
 ScaDFX=  0.800000  0.720000  1.000000  0.810000 ScalE2=  1.000000  1.000000
 IRadAn=      0 IRanWt=     -1 IRanGd=            0 ICorTp=0 IEmpDi=  4
 NAtoms=   41 NActive=   41 NUniq=   41 SFac= 1.00D+00 NAtFMM=   60 NAOKFM=F Big=F
 Integral buffers will be    262144 words long.
 Raffenetti 2 integral format.
 Two-electron integral symmetry is turned on.
 Leave Link  301 at Fri Jul 05 09:45:34 2019, MaxMem=   209715200 cpu:         0.0
 (Enter C:\G09W\l302.exe)
 NPDir=0 NMtPBC=     1 NCelOv=     1 NCel=       1 NClECP=     1 NCelD=      1
         NCelK=      1 NCelE2=     1 NClLst=     1 CellRange=     0.0.
 One-electron integrals computed using PRISM.
 NBasis=   610 RedAO= T EigKep=  1.67D-06  NBF=   610
 NBsUse=   607 1.00D-06 EigRej=  7.93D-07 NBFU=   607
 Precomputing XC quadrature grid using
 IXCGrd= 4 IRadAn=           0 IRanWt=          -1 IRanGd=           0 AccXCQ= 0.00D+00.
 Generated NRdTot=       0 NPtTot=           0 NUsed=           0 NTot=          16
 NSgBfM=   617   617   617   617   617 MxSgAt=    41 MxSgA2=    41.
 Leave Link  302 at Fri Jul 05 09:45:36 2019, MaxMem=   209715200 cpu:         2.0
 (Enter C:\G09W\l303.exe)
 DipDrv:  MaxL=1.
 Leave Link  303 at Fri Jul 05 09:45:37 2019, MaxMem=   209715200 cpu:         1.0
 (Enter C:\G09W\l401.exe)
 ExpMin= 3.60D-02 ExpMax= 1.06D+05 ExpMxC= 3.62D+03 IAcc=3 IRadAn=         5 AccDes= 0.00D+00
 Harris functional with IExCor=  402 and IRadAn=       5 diagonalized for initial guess.
 HarFok:  IExCor=  402 AccDes= 0.00D+00 IRadAn=         5 IDoV= 1 UseB2=F ITyADJ=14
 ICtDFT=  3500011 ScaDFX=  1.000000  1.000000  1.000000  1.000000
 FoFCou: FMM=F IPFlag=           0 FMFlag=      100000 FMFlg1=           0
         NFxFlg=           0 DoJE=T BraDBF=F KetDBF=T FulRan=T
         wScrn=  0.000000 ICntrl=     500 IOpCl=  0 I1Cent=   200000004 NGrid=           0
         NMat0=    1 NMatS0=      1 NMatT0=    0 NMatD0=    1 NMtDS0=    0 NMtDT0=    0
 Petite list used in FoFCou.
 Harris En= -1362.68465060579    
 JPrj=0 DoOrth=F DoCkMO=F.
 Leave Link  401 at Fri Jul 05 09:46:12 2019, MaxMem=   209715200 cpu:        35.0
 (Enter C:\G09W\l502.exe)
 Closed shell SCF:
 Using DIIS extrapolation, IDIIS=  1040.
 Integral symmetry usage will be decided dynamically.
 IVT=     1220641 IEndB=     1220641 NGot=   209715200 MDV=   208909992
 LenX=   208909992 LenY=   208511200
 Requested convergence on RMS density matrix=1.00D-08 within 128 cycles.
 Requested convergence on MAX density matrix=1.00D-06.
 Requested convergence on             energy=1.00D-06.
 No special actions if energy rises.
 Fock matrices will be formed incrementally for  20 cycles.

 Cycle   1  Pass 1  IDiag  1:
 FoFJK:  IHMeth= 1 ICntrl=       0 DoSepK=F KAlg= 0 I1Cent=   0 FoldK=F
 IRaf= 820000000 NMat=   1 IRICut=       1 DoRegI=T DoRafI=F ISym2E= 0.
 FoFCou: FMM=F IPFlag=           0 FMFlag=      100000 FMFlg1=           0
         NFxFlg=           0 DoJE=F BraDBF=F KetDBF=F FulRan=T
         wScrn=  0.000000 ICntrl=       0 IOpCl=  0 I1Cent=           0 NGrid=           0
         NMat0=    1 NMatS0=      1 NMatT0=    0 NMatD0=    1 NMtDS0=    0 NMtDT0=    0
 Symmetry not used in FoFCou.
 E= -1362.02521327594    
 DIIS: error= 2.91D-02 at cycle   1 NSaved=   1.
 NSaved= 1 IEnMin= 1 EnMin= -1362.02521327594     IErMin= 1 ErrMin= 2.91D-02
 ErrMax= 2.91D-02  0.00D+00 EMaxC= 1.00D-01 BMatC= 7.45D-01 BMatP= 7.45D-01
 IDIUse=3 WtCom= 7.09D-01 WtEn= 2.91D-01
 Coeff-Com:  0.100D+01
 Coeff-En:   0.100D+01
 Coeff:      0.100D+01
 Gap=     0.352 Goal=   None    Shift=    0.000
 GapD=    0.352 DampG=1.000 DampE=0.500 DampFc=0.5000 IDamp=-1.
 Damping current iteration by 5.00D-01
 RMSDP=3.38D-02 MaxDP=4.75D+00              OVMax= 2.22D-01

 Cycle   2  Pass 1  IDiag  1:
 RMSU=  1.50D-02    CP:  1.19D+00
 E= -1362.25012176492     Delta-E=       -0.224908488982 Rises=F Damp=T
 DIIS: error= 6.49D-03 at cycle   2 NSaved=   2.
 NSaved= 2 IEnMin= 2 EnMin= -1362.25012176492     IErMin= 2 ErrMin= 6.49D-03
 ErrMax= 6.49D-03  0.00D+00 EMaxC= 1.00D-01 BMatC= 7.13D-02 BMatP= 7.45D-01
 IDIUse=3 WtCom= 9.35D-01 WtEn= 6.49D-02
 Coeff-Com:  0.126D+00 0.874D+00
 Coeff-En:   0.248D+00 0.752D+00
 Coeff:      0.134D+00 0.866D+00
 Gap=     0.300 Goal=   None    Shift=    0.000
 RMSDP=1.29D-02 MaxDP=2.13D+00 DE=-2.25D-01 OVMax= 1.73D-01

 Cycle   3  Pass 1  IDiag  1:
 RMSU=  5.38D-03    CP:  9.81D-01  4.64D-01
 E= -1362.58743935303     Delta-E=       -0.337317588111 Rises=F Damp=F
 DIIS: error= 1.18D-02 at cycle   3 NSaved=   3.
 NSaved= 3 IEnMin= 3 EnMin= -1362.58743935303     IErMin= 2 ErrMin= 6.49D-03
 ErrMax= 1.18D-02  0.00D+00 EMaxC= 1.00D-01 BMatC= 7.92D-02 BMatP= 7.13D-02
 IDIUse=2 WtCom= 0.00D+00 WtEn= 1.00D+00
 Coeff-En:   0.000D+00 0.000D+00 0.100D+01
 Coeff:      0.000D+00 0.000D+00 0.100D+01
 Gap=     0.219 Goal=   None    Shift=    0.000
 RMSDP=1.30D-02 MaxDP=1.96D+00 DE=-3.37D-01 OVMax= 3.05D-01

 Cycle   4  Pass 1  IDiag  1:
 RMSU=  6.86D-03    CP:  1.16D+00  1.00D+00  8.82D-01
 E= -1362.28237939717     Delta-E=        0.305059955862 Rises=F Damp=F
 DIIS: error= 2.26D-02 at cycle   4 NSaved=   4.
 NSaved= 4 IEnMin= 3 EnMin= -1362.58743935303     IErMin= 2 ErrMin= 6.49D-03
 ErrMax= 2.26D-02  0.00D+00 EMaxC= 1.00D-01 BMatC= 4.59D-01 BMatP= 7.13D-02
 IDIUse=2 WtCom= 0.00D+00 WtEn= 1.00D+00
 Coeff-En:   0.000D+00 0.000D+00 0.802D+00 0.198D+00
 Coeff:      0.000D+00 0.000D+00 0.802D+00 0.198D+00
 Gap=     0.200 Goal=   None    Shift=    0.000
 RMSDP=7.26D-03 MaxDP=1.20D+00 DE= 3.05D-01 OVMax= 1.09D-01

 Cycle   5  Pass 1  IDiag  1:
 RMSU=  9.94D-04    CP:  1.06D+00  7.18D-01  9.04D-01  4.43D-01
 E= -1362.62066733671     Delta-E=       -0.338287939536 Rises=F Damp=F
 DIIS: error= 6.88D-03 at cycle   5 NSaved=   5.
 NSaved= 5 IEnMin= 5 EnMin= -1362.62066733671     IErMin= 2 ErrMin= 6.49D-03
 ErrMax= 6.88D-03  0.00D+00 EMaxC= 1.00D-01 BMatC= 3.66D-02 BMatP= 7.13D-02
 IDIUse=3 WtCom= 9.31D-01 WtEn= 6.88D-02
 Coeff-Com:  0.609D-02 0.534D-02 0.355D+00-0.442D-01 0.678D+00
 Coeff-En:   0.000D+00 0.000D+00 0.357D+00 0.000D+00 0.643D+00
 Coeff:      0.567D-02 0.498D-02 0.355D+00-0.411D-01 0.675D+00
 Gap=     0.193 Goal=   None    Shift=    0.000
 RMSDP=3.10D-03 MaxDP=4.66D-01 DE=-3.38D-01 OVMax= 3.22D-02

 Cycle   6  Pass 1  IDiag  1:
 RMSU=  5.41D-04    CP:  1.01D+00  5.93D-01  9.98D-01  2.58D-01  6.26D-01
 E= -1362.64853952165     Delta-E=       -0.027872184939 Rises=F Damp=F
 DIIS: error= 6.70D-04 at cycle   6 NSaved=   6.
 NSaved= 6 IEnMin= 6 EnMin= -1362.64853952165     IErMin= 6 ErrMin= 6.70D-04
 ErrMax= 6.70D-04  0.00D+00 EMaxC= 1.00D-01 BMatC= 3.28D-04 BMatP= 3.66D-02
 IDIUse=3 WtCom= 9.93D-01 WtEn= 6.70D-03
 Coeff-Com:  0.257D-02-0.114D-02 0.160D+00-0.494D-01 0.412D+00 0.476D+00
 Coeff-En:   0.000D+00 0.000D+00 0.000D+00 0.000D+00 0.000D+00 0.100D+01
 Coeff:      0.256D-02-0.113D-02 0.159D+00-0.491D-01 0.409D+00 0.480D+00
 Gap=     0.191 Goal=   None    Shift=    0.000
 RMSDP=3.95D-04 MaxDP=6.04D-02 DE=-2.79D-02 OVMax= 4.71D-03

 Cycle   7  Pass 1  IDiag  1:
 RMSU=  9.61D-05    CP:  1.02D+00  6.06D-01  9.83D-01  2.71D-01  7.13D-01
                    CP:  6.27D-01
 E= -1362.64879000731     Delta-E=       -0.000250485658 Rises=F Damp=F
 DIIS: error= 2.92D-04 at cycle   7 NSaved=   7.
 NSaved= 7 IEnMin= 7 EnMin= -1362.64879000731     IErMin= 7 ErrMin= 2.92D-04
 ErrMax= 2.92D-04  0.00D+00 EMaxC= 1.00D-01 BMatC= 2.15D-05 BMatP= 3.28D-04
 IDIUse=3 WtCom= 9.97D-01 WtEn= 2.92D-03
 Coeff-Com:  0.126D-02-0.143D-02 0.620D-01-0.235D-01 0.168D+00 0.232D+00
 Coeff-Com:  0.562D+00
 Coeff-En:   0.000D+00 0.000D+00 0.000D+00 0.000D+00 0.000D+00 0.000D+00
 Coeff-En:   0.100D+01
 Coeff:      0.126D-02-0.143D-02 0.618D-01-0.234D-01 0.167D+00 0.231D+00
 Coeff:      0.564D+00
 Gap=     0.191 Goal=   None    Shift=    0.000
 RMSDP=9.00D-05 MaxDP=1.08D-02 DE=-2.50D-04 OVMax= 2.01D-03

 Cycle   8  Pass 1  IDiag  1:
 RMSU=  3.43D-05    CP:  1.02D+00  6.02D-01  9.79D-01  2.64D-01  7.15D-01
                    CP:  6.07D-01  7.37D-01
 E= -1362.64880809273     Delta-E=       -0.000018085421 Rises=F Damp=F
 DIIS: error= 1.07D-04 at cycle   8 NSaved=   8.
 NSaved= 8 IEnMin= 8 EnMin= -1362.64880809273     IErMin= 8 ErrMin= 1.07D-04
 ErrMax= 1.07D-04  0.00D+00 EMaxC= 1.00D-01 BMatC= 4.86D-06 BMatP= 2.15D-05
 IDIUse=3 WtCom= 9.99D-01 WtEn= 1.07D-03
 Coeff-Com:  0.534D-03-0.114D-02 0.143D-01-0.589D-02 0.348D-01 0.563D-01
 Coeff-Com:  0.366D+00 0.536D+00
 Coeff-En:   0.000D+00 0.000D+00 0.000D+00 0.000D+00 0.000D+00 0.000D+00
 Coeff-En:   0.107D+00 0.893D+00
 Coeff:      0.533D-03-0.114D-02 0.143D-01-0.588D-02 0.347D-01 0.562D-01
 Coeff:      0.365D+00 0.536D+00
 Gap=     0.191 Goal=   None    Shift=    0.000
 RMSDP=2.46D-05 MaxDP=2.86D-03 DE=-1.81D-05 OVMax= 6.12D-04

 Cycle   9  Pass 1  IDiag  1:
 RMSU=  1.27D-05    CP:  1.02D+00  6.02D-01  9.80D-01  2.64D-01  7.17D-01
                    CP:  6.15D-01  7.65D-01  6.49D-01
 E= -1362.64881212585     Delta-E=       -0.000004033122 Rises=F Damp=F
 DIIS: error= 2.27D-05 at cycle   9 NSaved=   9.
 NSaved= 9 IEnMin= 9 EnMin= -1362.64881212585     IErMin= 9 ErrMin= 2.27D-05
 ErrMax= 2.27D-05  0.00D+00 EMaxC= 1.00D-01 BMatC= 4.18D-07 BMatP= 4.86D-06
 IDIUse=1 WtCom= 1.00D+00 WtEn= 0.00D+00
 Coeff-Com:  0.252D-03-0.651D-03 0.386D-02-0.163D-02 0.725D-02 0.146D-01
 Coeff-Com:  0.183D+00 0.333D+00 0.460D+00
 Coeff:      0.252D-03-0.651D-03 0.386D-02-0.163D-02 0.725D-02 0.146D-01
 Coeff:      0.183D+00 0.333D+00 0.460D+00
 Gap=     0.191 Goal=   None    Shift=    0.000
 RMSDP=8.94D-06 MaxDP=1.15D-03 DE=-4.03D-06 OVMax= 2.84D-04

 Cycle  10  Pass 1  IDiag  1:
 RMSU=  4.89D-06    CP:  1.02D+00  6.01D-01  9.79D-01  2.64D-01  7.18D-01
                    CP:  6.10D-01  7.88D-01  7.38D-01  7.09D-01
 E= -1362.64881251507     Delta-E=       -0.000000389220 Rises=F Damp=F
 DIIS: error= 4.51D-06 at cycle  10 NSaved=  10.
 NSaved=10 IEnMin=10 EnMin= -1362.64881251507     IErMin=10 ErrMin= 4.51D-06
 ErrMax= 4.51D-06  0.00D+00 EMaxC= 1.00D-01 BMatC= 1.97D-08 BMatP= 4.18D-07
 IDIUse=1 WtCom= 1.00D+00 WtEn= 0.00D+00
 Coeff-Com:  0.740D-04-0.209D-03 0.412D-03-0.169D-03-0.140D-04 0.161D-02
 Coeff-Com:  0.484D-01 0.100D+00 0.228D+00 0.621D+00
 Coeff:      0.740D-04-0.209D-03 0.412D-03-0.169D-03-0.140D-04 0.161D-02
 Coeff:      0.484D-01 0.100D+00 0.228D+00 0.621D+00
 Gap=     0.191 Goal=   None    Shift=    0.000
 RMSDP=4.90D-06 MaxDP=4.27D-04 DE=-3.89D-07 OVMax= 7.96D-05

 Cycle  11  Pass 1  IDiag  1:
 RMSU=  1.63D-06    CP:  1.02D+00  6.02D-01  9.80D-01  2.64D-01  7.17D-01
                    CP:  6.10D-01  7.96D-01  7.02D-01  6.86D-01  7.04D-01
 E= -1362.64881252998     Delta-E=       -0.000000014916 Rises=F Damp=F
 DIIS: error= 1.74D-06 at cycle  11 NSaved=  11.
 NSaved=11 IEnMin=11 EnMin= -1362.64881252998     IErMin=11 ErrMin= 1.74D-06
 ErrMax= 1.74D-06  0.00D+00 EMaxC= 1.00D-01 BMatC= 4.46D-09 BMatP= 1.97D-08
 IDIUse=1 WtCom= 1.00D+00 WtEn= 0.00D+00
 Coeff-Com:  0.156D-04-0.505D-04-0.163D-03 0.611D-04-0.681D-03-0.278D-03
 Coeff-Com:  0.804D-02 0.217D-01 0.832D-01 0.381D+00 0.507D+00
 Coeff:      0.156D-04-0.505D-04-0.163D-03 0.611D-04-0.681D-03-0.278D-03
 Coeff:      0.804D-02 0.217D-01 0.832D-01 0.381D+00 0.507D+00
 Gap=     0.191 Goal=   None    Shift=    0.000
 RMSDP=1.21D-06 MaxDP=1.76D-04 DE=-1.49D-08 OVMax= 1.81D-05

 Cycle  12  Pass 1  IDiag  1:
 RMSU=  4.56D-07    CP:  1.02D+00  6.02D-01  9.80D-01  2.64D-01  7.17D-01
                    CP:  6.11D-01  7.97D-01  7.06D-01  6.92D-01  7.41D-01
                    CP:  7.12D-01
 E= -1362.64881253367     Delta-E=       -0.000000003681 Rises=F Damp=F
 DIIS: error= 3.87D-07 at cycle  12 NSaved=  12.
 NSaved=12 IEnMin=12 EnMin= -1362.64881253367     IErMin=12 ErrMin= 3.87D-07
 ErrMax= 3.87D-07  0.00D+00 EMaxC= 1.00D-01 BMatC= 1.76D-10 BMatP= 4.46D-09
 IDIUse=1 WtCom= 1.00D+00 WtEn= 0.00D+00
 Coeff-Com:  0.212D-06-0.473D-05-0.121D-03 0.422D-04-0.325D-03-0.167D-03
 Coeff-Com: -0.292D-04 0.283D-02 0.200D-01 0.129D+00 0.219D+00 0.629D+00
 Coeff:      0.212D-06-0.473D-05-0.121D-03 0.422D-04-0.325D-03-0.167D-03
 Coeff:     -0.292D-04 0.283D-02 0.200D-01 0.129D+00 0.219D+00 0.629D+00
 Gap=     0.191 Goal=   None    Shift=    0.000
 RMSDP=3.47D-07 MaxDP=2.78D-05 DE=-3.68D-09 OVMax= 2.52D-06

 Cycle  13  Pass 1  IDiag  1:
 RMSU=  1.13D-07    CP:  1.02D+00  6.02D-01  9.79D-01  2.64D-01  7.17D-01
                    CP:  6.11D-01  7.95D-01  7.08D-01  7.00D-01  7.53D-01
                    CP:  6.94D-01  8.82D-01
 E= -1362.64881253419     Delta-E=       -0.000000000520 Rises=F Damp=F
 DIIS: error= 1.01D-07 at cycle  13 NSaved=  13.
 NSaved=13 IEnMin=13 EnMin= -1362.64881253419     IErMin=13 ErrMin= 1.01D-07
 ErrMax= 1.01D-07  0.00D+00 EMaxC= 1.00D-01 BMatC= 1.68D-11 BMatP= 1.76D-10
 IDIUse=1 WtCom= 1.00D+00 WtEn= 0.00D+00
 Coeff-Com: -0.132D-05 0.196D-05-0.416D-04 0.140D-04-0.896D-04-0.221D-04
 Coeff-Com: -0.521D-03-0.135D-03 0.214D-02 0.264D-01 0.517D-01 0.268D+00
 Coeff-Com:  0.652D+00
 Coeff:     -0.132D-05 0.196D-05-0.416D-04 0.140D-04-0.896D-04-0.221D-04
 Coeff:     -0.521D-03-0.135D-03 0.214D-02 0.264D-01 0.517D-01 0.268D+00
 Coeff:      0.652D+00
 Gap=     0.191 Goal=   None    Shift=    0.000
 RMSDP=5.35D-08 MaxDP=5.20D-06 DE=-5.20D-10 OVMax= 9.06D-07

 Cycle  14  Pass 1  IDiag  1:
 RMSU=  3.06D-08    CP:  1.02D+00  6.02D-01  9.79D-01  2.64D-01  7.17D-01
                    CP:  6.11D-01  7.95D-01  7.08D-01  6.99D-01  7.55D-01
                    CP:  6.97D-01  8.71D-01  7.99D-01
 E= -1362.64881253396     Delta-E=        0.000000000223 Rises=F Damp=F
 DIIS: error= 3.23D-08 at cycle  14 NSaved=  14.
 NSaved=14 IEnMin=13 EnMin= -1362.64881253419     IErMin=14 ErrMin= 3.23D-08
 ErrMax= 3.23D-08  0.00D+00 EMaxC= 1.00D-01 BMatC= 2.35D-12 BMatP= 1.68D-11
 IDIUse=1 WtCom= 1.00D+00 WtEn= 0.00D+00
 Coeff-Com: -0.890D-06 0.173D-05-0.989D-05 0.304D-05-0.124D-04 0.645D-05
 Coeff-Com: -0.300D-03-0.447D-03-0.137D-02-0.194D-02 0.583D-03 0.606D-01
 Coeff-Com:  0.334D+00 0.609D+00
 Coeff:     -0.890D-06 0.173D-05-0.989D-05 0.304D-05-0.124D-04 0.645D-05
 Coeff:     -0.300D-03-0.447D-03-0.137D-02-0.194D-02 0.583D-03 0.606D-01
 Coeff:      0.334D+00 0.609D+00
 Gap=     0.191 Goal=   None    Shift=    0.000
 RMSDP=4.50D-08 MaxDP=4.96D-06 DE= 2.23D-10 OVMax= 3.37D-07

 Cycle  15  Pass 1  IDiag  1:
 RMSU=  9.98D-09    CP:  1.02D+00  6.02D-01  9.79D-01  2.64D-01  7.17D-01
                    CP:  6.11D-01  7.96D-01  7.08D-01  6.99D-01  7.54D-01
                    CP:  7.02D-01  8.79D-01  8.01D-01  8.73D-01
 E= -1362.64881253420     Delta-E=       -0.000000000238 Rises=F Damp=F
 DIIS: error= 9.50D-09 at cycle  15 NSaved=  15.
 NSaved=15 IEnMin=15 EnMin= -1362.64881253420     IErMin=15 ErrMin= 9.50D-09
 ErrMax= 9.50D-09  0.00D+00 EMaxC= 1.00D-01 BMatC= 1.60D-13 BMatP= 2.35D-12
 IDIUse=1 WtCom= 1.00D+00 WtEn= 0.00D+00
 Coeff-Com: -0.280D-06 0.577D-06-0.132D-05 0.385D-06 0.861D-06 0.506D-05
 Coeff-Com: -0.793D-04-0.166D-03-0.744D-03-0.291D-02-0.372D-02 0.524D-02
 Coeff-Com:  0.987D-01 0.283D+00 0.620D+00
 Coeff:     -0.280D-06 0.577D-06-0.132D-05 0.385D-06 0.861D-06 0.506D-05
 Coeff:     -0.793D-04-0.166D-03-0.744D-03-0.291D-02-0.372D-02 0.524D-02
 Coeff:      0.987D-01 0.283D+00 0.620D+00
 Gap=     0.191 Goal=   None    Shift=    0.000
 RMSDP=7.06D-09 MaxDP=6.97D-07 DE=-2.38D-10 OVMax= 1.14D-07

 SCF Done:  E(RB3LYP) =  -1362.64881253     A.U. after   15 cycles
            NFock= 15  Conv=0.71D-08     -V/T= 2.0030
 KE= 1.358560071094D+03 PE=-6.931439128228D+03 EE= 2.342672388355D+03
 Leave Link  502 at Fri Jul 05 10:08:19 2019, MaxMem=   209715200 cpu:      1326.0
 (Enter C:\G09W\l601.exe)
 Copying SCF densities to generalized density rwf, IOpCl= 0 IROHF=0.

 **********************************************************************

            Population analysis using the SCF density.

 **********************************************************************

 Orbital symmetries:
       Occupied  (A) (A) (A) (A) (A) (A) (A) (A) (A) (A) (A) (A)
                 (A) (A) (A) (A) (A) (A) (A) (A) (A) (A) (A) (A)
                 (A) (A) (A) (A) (A) (A) (A) (A) (A) (A) (A) (A)
                 (A) (A) (A) (A) (A) (A) (A) (A) (A) (A) (A) (A)
                 (A) (A) (A) (A) (A) (A) (A) (A) (A) (A) (A) (A)
                 (A) (A) (A) (A) (A) (A) (A) (A) (A) (A) (A) (A)
                 (A) (A) (A) (A) (A) (A) (A) (A) (A) (A)
       Virtual   (A) (A) (A) (A) (A) (A) (A) (A) (A) (A) (A) (A)
                 (A) (A) (A) (A) (A) (A) (A) (A) (A) (A) (A) (A)
                 (A) (A) (A) (A) (A) (A) (A) (A) (A) (A) (A) (A)
                 (A) (A) (A) (A) (A) (A) (A) (A) (A) (A) (A) (A)
                 (A) (A) (A) (A) (A) (A) (A) (A) (A) (A) (A) (A)
                 (A) (A) (A) (A) (A) (A) (A) (A) (A) (A) (A) (A)
                 (A) (A) (A) (A) (A) (A) (A) (A) (A) (A) (A) (A)
                 (A) (A) (A) (A) (A) (A) (A) (A) (A) (A) (A) (A)
                 (A) (A) (A) (A) (A) (A) (A) (A) (A) (A) (A) (A)
                 (A) (A) (A) (A) (A) (A) (A) (A) (A) (A) (A) (A)
                 (A) (A) (A) (A) (A) (A) (A) (A) (A) (A) (A) (A)
                 (A) (A) (A) (A) (A) (A) (A) (A) (A) (A) (A) (A)
                 (A) (A) (A) (A) (A) (A) (A) (A) (A) (A) (A) (A)
                 (A) (A) (A) (A) (A) (A) (A) (A) (A) (A) (A) (A)
                 (A) (A) (A) (A) (A) (A) (A) (A) (A) (A) (A) (A)
                 (A) (A) (A) (A) (A) (A) (A) (A) (A) (A) (A) (A)
                 (A) (A) (A) (A) (A) (A) (A) (A) (A) (A) (A) (A)
                 (A) (A) (A) (A) (A) (A) (A) (A) (A) (A) (A) (A)
                 (A) (A) (A) (A) (A) (A) (A) (A) (A) (A) (A) (A)
                 (A) (A) (A) (A) (A) (A) (A) (A) (A) (A) (A) (A)
                 (A) (A) (A) (A) (A) (A) (A) (A) (A) (A) (A) (A)
                 (A) (A) (A) (A) (A) (A) (A) (A) (A) (A) (A) (A)
                 (A) (A) (A) (A) (A) (A) (A) (A) (A) (A) (A) (A)
                 (A) (A) (A) (A) (A) (A) (A) (A) (A) (A) (A) (A)
                 (A) (A) (A) (A) (A) (A) (A) (A) (A) (A) (A) (A)
                 (A) (A) (A) (A) (A) (A) (A) (A) (A) (A) (A) (A)
                 (A) (A) (A) (A) (A) (A) (A) (A) (A) (A) (A) (A)
                 (A) (A) (A) (A) (A) (A) (A) (A) (A) (A) (A) (A)
                 (A) (A) (A) (A) (A) (A) (A) (A) (A) (A) (A) (A)
                 (A) (A) (A) (A) (A) (A) (A) (A) (A) (A) (A) (A)
                 (A) (A) (A) (A) (A) (A) (A) (A) (A) (A) (A) (A)
                 (A) (A) (A) (A) (A) (A) (A) (A) (A) (A) (A) (A)
                 (A) (A) (A) (A) (A) (A) (A) (A) (A) (A) (A) (A)
                 (A) (A) (A) (A) (A) (A) (A) (A) (A) (A) (A) (A)
                 (A) (A) (A) (A) (A) (A) (A) (A) (A) (A) (A) (A)
                 (A) (A) (A) (A) (A) (A) (A) (A) (A) (A) (A) (A)
                 (A) (A) (A) (A) (A) (A) (A) (A) (A) (A) (A) (A)
                 (A) (A) (A) (A) (A) (A) (A) (A) (A) (A) (A) (A)
                 (A) (A) (A) (A) (A) (A) (A) (A) (A) (A) (A) (A)
                 (A) (A) (A) (A) (A) (A) (A) (A) (A) (A) (A) (A)
                 (A) (A) (A) (A) (A) (A) (A) (A) (A) (A) (A) (A)
                 (A) (A) (A) (A) (A) (A) (A) (A) (A) (A) (A) (A)
                 (A) (A) (A) (A) (A) (A) (A) (A) (A) (A) (A) (A)
                 (A) (A) (A) (A) (A) (A) (A) (A) (A)
 The electronic state is 1-A.
 Alpha  occ. eigenvalues -- -101.56929 -19.16779 -19.13421 -19.10093 -14.37180
 Alpha  occ. eigenvalues --  -10.29671 -10.25687 -10.25050 -10.24041 -10.23973
 Alpha  occ. eigenvalues --  -10.23077 -10.20883 -10.20221 -10.20090 -10.19836
 Alpha  occ. eigenvalues --  -10.19798 -10.18624 -10.18022 -10.16647 -10.16307
 Alpha  occ. eigenvalues --  -10.15729  -9.48369  -7.24838  -7.23834  -7.23826
 Alpha  occ. eigenvalues --   -1.12694  -1.05417  -1.03862  -0.99171  -0.89901
 Alpha  occ. eigenvalues --   -0.88278  -0.82685  -0.81360  -0.78825  -0.78164
 Alpha  occ. eigenvalues --   -0.77086  -0.71516  -0.71431  -0.69334  -0.65045
 Alpha  occ. eigenvalues --   -0.63864  -0.63126  -0.61611  -0.59570  -0.57377
 Alpha  occ. eigenvalues --   -0.55107  -0.54288  -0.53656  -0.52405  -0.50387
 Alpha  occ. eigenvalues --   -0.50026  -0.49173  -0.47187  -0.46240  -0.45457
 Alpha  occ. eigenvalues --   -0.44737  -0.44662  -0.44197  -0.43833  -0.43567
 Alpha  occ. eigenvalues --   -0.41944  -0.41782  -0.39973  -0.39526  -0.39244
 Alpha  occ. eigenvalues --   -0.38624  -0.38513  -0.37854  -0.37617  -0.37419
 Alpha  occ. eigenvalues --   -0.35929  -0.34445  -0.33893  -0.33335  -0.33307
 Alpha  occ. eigenvalues --   -0.32466  -0.31849  -0.29141  -0.28726  -0.28087
 Alpha  occ. eigenvalues --   -0.27649  -0.23943
 Alpha virt. eigenvalues --   -0.04890  -0.04462  -0.02673  -0.02398  -0.01410
 Alpha virt. eigenvalues --   -0.00677  -0.00332   0.00323   0.01119   0.01345
 Alpha virt. eigenvalues --    0.01752   0.01950   0.02174   0.03221   0.03557
 Alpha virt. eigenvalues --    0.03863   0.04109   0.04543   0.04833   0.05053
 Alpha virt. eigenvalues --    0.05759   0.06176   0.06589   0.06927   0.07074
 Alpha virt. eigenvalues --    0.07371   0.07525   0.07674   0.08315   0.08360
 Alpha virt. eigenvalues --    0.08763   0.09132   0.09348   0.09700   0.09847
 Alpha virt. eigenvalues --    0.09983   0.10424   0.10715   0.10763   0.11088
 Alpha virt. eigenvalues --    0.11296   0.11665   0.11790   0.11973   0.12355
 Alpha virt. eigenvalues --    0.12667   0.12956   0.13134   0.13497   0.13850
 Alpha virt. eigenvalues --    0.14073   0.14216   0.14458   0.14603   0.14733
 Alpha virt. eigenvalues --    0.14944   0.15280   0.15404   0.15622   0.15924
 Alpha virt. eigenvalues --    0.16128   0.16346   0.16664   0.16739   0.17009
 Alpha virt. eigenvalues --    0.17125   0.17534   0.17956   0.18169   0.18336
 Alpha virt. eigenvalues --    0.18603   0.18999   0.19236   0.19763   0.20120
 Alpha virt. eigenvalues --    0.20201   0.20271   0.20609   0.21022   0.21496
 Alpha virt. eigenvalues --    0.21555   0.21720   0.21915   0.22256   0.22440
 Alpha virt. eigenvalues --    0.22960   0.23588   0.23953   0.24130   0.24313
 Alpha virt. eigenvalues --    0.24724   0.25105   0.25263   0.25539   0.26022
 Alpha virt. eigenvalues --    0.26237   0.26248   0.27042   0.27253   0.27378
 Alpha virt. eigenvalues --    0.27657   0.27994   0.28040   0.28471   0.29024
 Alpha virt. eigenvalues --    0.29364   0.29397   0.29781   0.30152   0.30287
 Alpha virt. eigenvalues --    0.30694   0.30910   0.31215   0.31549   0.31745
 Alpha virt. eigenvalues --    0.32359   0.32990   0.33266   0.33729   0.33963
 Alpha virt. eigenvalues --    0.34266   0.34954   0.35081   0.35231   0.35575
 Alpha virt. eigenvalues --    0.36374   0.36499   0.36758   0.37559   0.37788
 Alpha virt. eigenvalues --    0.38424   0.38765   0.39503   0.40151   0.40989
 Alpha virt. eigenvalues --    0.41597   0.41980   0.42199   0.42802   0.43289
 Alpha virt. eigenvalues --    0.44588   0.44707   0.44969   0.45774   0.46870
 Alpha virt. eigenvalues --    0.47627   0.47774   0.48056   0.48532   0.49625
 Alpha virt. eigenvalues --    0.50581   0.50841   0.51960   0.52879   0.52976
 Alpha virt. eigenvalues --    0.53686   0.54395   0.55043   0.55312   0.55533
 Alpha virt. eigenvalues --    0.55782   0.56672   0.57546   0.58255   0.59411
 Alpha virt. eigenvalues --    0.59635   0.59934   0.61082   0.61660   0.62269
 Alpha virt. eigenvalues --    0.62517   0.63231   0.63532   0.64235   0.64588
 Alpha virt. eigenvalues --    0.65506   0.66018   0.66440   0.66862   0.67232
 Alpha virt. eigenvalues --    0.68022   0.68426   0.68864   0.69058   0.69665
 Alpha virt. eigenvalues --    0.69951   0.70335   0.71222   0.71989   0.72446
 Alpha virt. eigenvalues --    0.72885   0.73291   0.73936   0.74036   0.74896
 Alpha virt. eigenvalues --    0.75552   0.75829   0.76487   0.77204   0.77719
 Alpha virt. eigenvalues --    0.77922   0.78772   0.79174   0.79900   0.80240
 Alpha virt. eigenvalues --    0.81561   0.82129   0.82517   0.83125   0.83497
 Alpha virt. eigenvalues --    0.84067   0.85741   0.87068   0.87455   0.87770
 Alpha virt. eigenvalues --    0.88282   0.88836   0.89136   0.89925   0.90262
 Alpha virt. eigenvalues --    0.91043   0.91258   0.92527   0.92883   0.94010
 Alpha virt. eigenvalues --    0.95195   0.95547   0.97136   0.97886   0.98221
 Alpha virt. eigenvalues --    0.98771   1.00000   1.00826   1.01692   1.03169
 Alpha virt. eigenvalues --    1.04315   1.05228   1.05814   1.06734   1.07231
 Alpha virt. eigenvalues --    1.08139   1.08662   1.10321   1.10955   1.11727
 Alpha virt. eigenvalues --    1.12129   1.13649   1.14517   1.16411   1.18109
 Alpha virt. eigenvalues --    1.19248   1.20418   1.21955   1.22172   1.23600
 Alpha virt. eigenvalues --    1.24830   1.25657   1.26350   1.28098   1.28743
 Alpha virt. eigenvalues --    1.30540   1.31811   1.33021   1.33550   1.34030
 Alpha virt. eigenvalues --    1.35766   1.36196   1.37741   1.38516   1.39598
 Alpha virt. eigenvalues --    1.41548   1.42506   1.44919   1.45212   1.46391
 Alpha virt. eigenvalues --    1.46556   1.47644   1.47918   1.49104   1.50006
 Alpha virt. eigenvalues --    1.50414   1.52922   1.53469   1.54474   1.55064
 Alpha virt. eigenvalues --    1.55461   1.55731   1.56452   1.57304   1.57875
 Alpha virt. eigenvalues --    1.58208   1.58814   1.59785   1.60606   1.60979
 Alpha virt. eigenvalues --    1.61412   1.62267   1.62809   1.64249   1.64733
 Alpha virt. eigenvalues --    1.66568   1.66875   1.67158   1.67927   1.68791
 Alpha virt. eigenvalues --    1.69473   1.70898   1.72279   1.72358   1.74125
 Alpha virt. eigenvalues --    1.75030   1.76255   1.76509   1.77252   1.77792
 Alpha virt. eigenvalues --    1.78579   1.79200   1.79654   1.80283   1.81510
 Alpha virt. eigenvalues --    1.81937   1.82418   1.83229   1.83731   1.85894
 Alpha virt. eigenvalues --    1.87508   1.88680   1.89562   1.90920   1.91632
 Alpha virt. eigenvalues --    1.91836   1.92831   1.93638   1.93994   1.95326
 Alpha virt. eigenvalues --    1.96517   1.97250   1.98064   1.99815   2.00176
 Alpha virt. eigenvalues --    2.02975   2.03914   2.04994   2.05818   2.07350
 Alpha virt. eigenvalues --    2.07897   2.08369   2.08659   2.08781   2.10659
 Alpha virt. eigenvalues --    2.11515   2.14270   2.15865   2.16340   2.17009
 Alpha virt. eigenvalues --    2.18508   2.19781   2.20053   2.21889   2.22569
 Alpha virt. eigenvalues --    2.23517   2.25689   2.27026   2.28888   2.30198
 Alpha virt. eigenvalues --    2.31608   2.33748   2.34491   2.35604   2.38654
 Alpha virt. eigenvalues --    2.38984   2.40297   2.41379   2.42620   2.45586
 Alpha virt. eigenvalues --    2.46659   2.46935   2.47568   2.49397   2.52067
 Alpha virt. eigenvalues --    2.52935   2.53457   2.54361   2.55376   2.56012
 Alpha virt. eigenvalues --    2.56415   2.56994   2.57368   2.58678   2.59025
 Alpha virt. eigenvalues --    2.60203   2.60541   2.61180   2.62154   2.63049
 Alpha virt. eigenvalues --    2.64689   2.65814   2.66566   2.67994   2.69878
 Alpha virt. eigenvalues --    2.70611   2.72073   2.73064   2.74654   2.75148
 Alpha virt. eigenvalues --    2.75556   2.76692   2.77327   2.78259   2.79092
 Alpha virt. eigenvalues --    2.79503   2.80221   2.82542   2.83158   2.84326
 Alpha virt. eigenvalues --    2.85141   2.86816   2.88151   2.90672   2.91525
 Alpha virt. eigenvalues --    2.92180   2.92310   2.92683   2.94595   2.95071
 Alpha virt. eigenvalues --    2.95378   2.96829   2.97566   2.98531   3.00824
 Alpha virt. eigenvalues --    3.02358   3.03070   3.04498   3.05809   3.06151
 Alpha virt. eigenvalues --    3.09433   3.09804   3.12742   3.13655   3.16605
 Alpha virt. eigenvalues --    3.17768   3.18682   3.19998   3.20684   3.21646
 Alpha virt. eigenvalues --    3.23280   3.25000   3.26379   3.29487   3.34565
 Alpha virt. eigenvalues --    3.36311   3.37328   3.40516   3.43344   3.45173
 Alpha virt. eigenvalues --    3.50008   3.50688   3.51847   3.53612   3.61917
 Alpha virt. eigenvalues --    3.63076   3.68284   3.72786   3.79555   3.80204
 Alpha virt. eigenvalues --    3.80964   3.81351   3.82731   3.83331   3.84870
 Alpha virt. eigenvalues --    3.89796   3.90830   3.92946   3.98039   3.99169
 Alpha virt. eigenvalues --    4.00535   4.02858   4.07057   4.12596   4.14653
 Alpha virt. eigenvalues --    4.16224   4.16987   4.18601   4.24548   4.31306
 Alpha virt. eigenvalues --    4.31996   4.34774   4.41908   4.83423   4.84446
 Alpha virt. eigenvalues --    5.08686   5.09776   5.11243   5.16713   5.22792
 Alpha virt. eigenvalues --    5.47181   5.49186   5.71341   5.74783   5.94503
 Alpha virt. eigenvalues --    9.81705  23.60362  23.65223  23.82244  23.83012
 Alpha virt. eigenvalues --   23.86186  23.93231  23.95853  23.97211  23.97725
 Alpha virt. eigenvalues --   23.99095  24.00125  24.01423  24.08154  24.11456
 Alpha virt. eigenvalues --   24.20082  24.22293  25.88515  26.15300  26.73064
 Alpha virt. eigenvalues --   35.66347  49.94159  49.97665  50.09714 215.81662
          Condensed to atoms (all electrons):
[...]
   357. RY*(  16) C  16                  0.00001     3.22980   
   358. RY*(  17) C  16                  0.00001     1.52317   
   359. RY*(   1) O  17                  0.00261     0.67801   
   360. RY*(   2) O  17                  0.00186     1.00174   
   361. RY*(   3) O  17                  0.00040     0.47388   
   362. RY*(   4) O  17                  0.00023     1.31200   
   363. RY*(   5) O  17                  0.00007     1.93852   
   364. RY*(   6) O  17                  0.00004     1.21115   
   365. RY*(   7) O  17                  0.00004     1.27372   
   366. RY*(   8) O  17                  0.00004     1.58194   
   367. RY*(   9) O  17                  0.00000     5.21311   
   368. RY*(  10) O  17                  0.00001     2.87073   
   369. RY*(  11) O  17                  0.00000     5.06112   
   370. RY*(  12) O  17                  0.00001     3.04133   
   371. RY*(  13) O  17                  0.00001     2.97544   
   372. RY*(  14) O  17                  0.00001     2.88595   
   373. RY*(  15) O  17                  0.00000    49.62955   
   374. RY*(  16) O  17                  0.00000     4.91180   
   375. RY*(  17) O  17                  0.00001     2.95975   
   376. RY*(   1) C  18                  0.00362     0.58930   
   377. RY*(   2) C  18                  0.00084     0.98448   
   378. RY*(   3) C  18                  0.00037     0.58512   
   379. RY*(   4) C  18                  0.00019     2.36633   
   380. RY*(   5) C  18                  0.00008     1.23828   
   381. RY*(   6) C  18                  0.00008     0.52223   
   382. RY*(   7) C  18                  0.00003     1.17874   
   383. RY*(   8) C  18                  0.00001     0.51560   
   384. RY*(   9) C  18                  0.00000     2.87256   
   385. RY*(  10) C  18                  0.00000    22.82496   
   386. RY*(  11) C  18                  0.00000     1.64075   
   387. RY*(  12) C  18                  0.00000     3.01024   
   388. RY*(  13) C  18                  0.00001     0.93347   
   389. RY*(  14) C  18                  0.00000     1.88935   
   390. RY*(  15) C  18                  0.00001     1.92833   
   391. RY*(  16) C  18                  0.00001     1.78137   
   392. RY*(  17) C  18                  0.00001     1.79288   
   393. RY*(   1) C  19                  0.00338     0.88506   
   394. RY*(   2) C  19                  0.00226     0.93259   
   395. RY*(   3) C  19                  0.00145     0.99515   
   396. RY*(   4) C  19                  0.00047     1.54682   
   397. RY*(   5) C  19                  0.00033     1.60380   
   398. RY*(   6) C  19                  0.00022     1.57895   
   399. RY*(   7) C  19                  0.00023     1.83231   
   400. RY*(   8) C  19                  0.00017     1.77979   
   401. RY*(   9) C  19                  0.00015     1.52791   
   402. RY*(  10) C  19                  0.00008     2.08131   
   403. RY*(  11) C  19                  0.00009     2.14867   
   404. RY*(  12) C  19                  0.00006     2.71417   
   405. RY*(  13) C  19                  0.00005     1.34661   
   406. RY*(  14) C  19                  0.00002     1.84151   
   407. RY*(  15) C  19                  0.00002     2.26045   
   408. RY*(  16) C  19                  0.00001     2.54910   
   409. RY*(  17) C  19                  0.00000    21.53518   
   410. RY*(   1) C  20                  0.00259     0.72246   
   411. RY*(   2) C  20                  0.00227     0.76326   
   412. RY*(   3) C  20                  0.00039     0.66349   
   413. RY*(   4) C  20                  0.00027     1.10560   
   414. RY*(   5) C  20                  0.00013     1.46899   
   415. RY*(   6) C  20                  0.00011     1.20568   
   416. RY*(   7) C  20                  0.00007     0.78887   
   417. RY*(   8) C  20                  0.00007     1.46899   
   418. RY*(   9) C  20                  0.00002     1.91883   
   419. RY*(  10) C  20                  0.00001     1.08754   
   420. RY*(  11) C  20                  0.00001     1.61638   
   421. RY*(  12) C  20                  0.00002     1.77872   
   422. RY*(  13) C  20                  0.00001     2.02752   
   423. RY*(  14) C  20                  0.00000     3.21603   
   424. RY*(  15) C  20                  0.00000    22.90472   
   425. RY*(  16) C  20                  0.00001     3.01110   
   426. RY*(  17) C  20                  0.00000     1.89515   
   427. RY*(   1) C  21                  0.00291     0.69781   
   428. RY*(   2) C  21                  0.00190     0.79700   
   429. RY*(   3) C  21                  0.00029     0.82256   
   430. RY*(   4) C  21                  0.00021     1.81094   
   431. RY*(   5) C  21                  0.00013     0.72910   
   432. RY*(   6) C  21                  0.00004     1.39233   
   433. RY*(   7) C  21                  0.00004     1.11723   
   434. RY*(   8) C  21                  0.00002     0.63649   
   435. RY*(   9) C  21                  0.00001     2.11460   
   436. RY*(  10) C  21                  0.00001     1.50594   
   437. RY*(  11) C  21                  0.00000     2.65564   
   438. RY*(  12) C  21                  0.00000     3.03772   
   439. RY*(  13) C  21                  0.00001     1.92071   
   440. RY*(  14) C  21                  0.00001     1.86178   
   441. RY*(  15) C  21                  0.00000     1.77659   
   442. RY*(  16) C  21                  0.00000    22.81823   
   443. RY*(  17) C  21                  0.00001     1.60785   
   444. RY*(   1) H  22                  0.00145     0.92882   
   445. RY*(   2) H  22                  0.00031     1.83544   
   446. RY*(   3) H  22                  0.00016     0.89303   
   447. RY*(   4) H  22                  0.00017     1.93118   
   448. RY*(   5) H  22                  0.00010     2.16959   
   449. RY*(   6) H  22                  0.00009     2.23867   
   450. RY*(   1) H  23                  0.00180     0.65105   
   451. RY*(   2) H  23                  0.00033     2.20286   
   452. RY*(   3) H  23                  0.00025     1.74602   
   453. RY*(   4) H  23                  0.00021     1.65866   
   454. RY*(   5) H  23                  0.00010     1.16396   
   455. RY*(   6) H  23                  0.00007     2.35835   
   456. RY*(   1) H  24                  0.00133     0.50220   
   457. RY*(   2) H  24                  0.00032     1.97478   
   458. RY*(   3) H  24                  0.00025     1.80306   
   459. RY*(   4) H  24                  0.00011     1.79693   
   460. RY*(   5) H  24                  0.00007     0.89621   
   461. RY*(   6) H  24                  0.00004     2.44108   
   462. RY*(   1) H  25                  0.00091     0.87874   
   463. RY*(   2) H  25                  0.00022     1.78935   
   464. RY*(   3) H  25                  0.00018     1.85307   
   465. RY*(   4) H  25                  0.00012     1.91963   
   466. RY*(   5) H  25                  0.00005     0.38241   
   467. RY*(   6) H  25                  0.00004     2.47242   
   468. RY*(   1) H  26                  0.00082     0.77898   
   469. RY*(   2) H  26                  0.00021     2.23146   
   470. RY*(   3) H  26                  0.00019     1.58577   
   471. RY*(   4) H  26                  0.00013     1.69491   
   472. RY*(   5) H  26                  0.00006     0.51357   
   473. RY*(   6) H  26                  0.00004     2.42171   
   474. RY*(   1) H  27                  0.00084     0.78821   
   475. RY*(   2) H  27                  0.00021     1.82997   
   476. RY*(   3) H  27                  0.00019     1.95111   
   477. RY*(   4) H  27                  0.00014     1.62539   
   478. RY*(   5) H  27                  0.00006     0.70115   
   479. RY*(   6) H  27                  0.00004     2.40278   
   480. RY*(   1) H  28                  0.00154     0.83334   
   481. RY*(   2) H  28                  0.00070     1.65695   
   482. RY*(   3) H  28                  0.00036     1.64311   
   483. RY*(   4) H  28                  0.00023     2.04121   
   484. RY*(   5) H  28                  0.00015     0.99311   
   485. RY*(   6) H  28                  0.00006     2.51140   
   486. RY*(   1) H  29                  0.00106     1.21787   
   487. RY*(   2) H  29                  0.00020     1.44724   
   488. RY*(   3) H  29                  0.00018     1.80485   
   489. RY*(   4) H  29                  0.00013     1.96250   
   490. RY*(   5) H  29                  0.00008     1.09613   
   491. RY*(   6) H  29                  0.00004     2.27533   
   492. RY*(   1) H  30                  0.00114     0.91607   
   493. RY*(   2) H  30                  0.00020     1.56380   
   494. RY*(   3) H  30                  0.00018     1.84728   
   495. RY*(   4) H  30                  0.00012     0.68822   
   496. RY*(   5) H  30                  0.00008     2.30823   
   497. RY*(   6) H  30                  0.00003     2.44160   
   498. RY*(   1) H  31                  0.00195     1.55376   
   499. RY*(   2) H  31                  0.00126     1.78990   
   500. RY*(   3) H  31                  0.00041     1.48212   
   501. RY*(   4) H  31                  0.00036     1.36361   
   502. RY*(   5) H  31                  0.00013     0.49870   
   503. RY*(   6) H  31                  0.00001     2.60047   
   504. RY*(   1) H  32                  0.00091     0.64381   
   505. RY*(   2) H  32                  0.00016     1.95072   
   506. RY*(   3) H  32                  0.00012     1.68062   
   507. RY*(   4) H  32                  0.00010     1.27827   
   508. RY*(   5) H  32                  0.00005     1.07882   
   509. RY*(   6) H  32                  0.00002     2.45878   
   510. RY*(   1) H  33                  0.00096     0.64722   
   511. RY*(   2) H  33                  0.00018     1.83068   
   512. RY*(   3) H  33                  0.00014     1.78461   
   513. RY*(   4) H  33                  0.00009     1.29802   
   514. RY*(   5) H  33                  0.00005     1.94932   
   515. RY*(   6) H  33                  0.00003     1.65257   
   516. RY*(   1) H  34                  0.00091     0.63833   
   517. RY*(   2) H  34                  0.00016     1.92046   
   518. RY*(   3) H  34                  0.00012     1.74436   
   519. RY*(   4) H  34                  0.00009     1.26778   
   520. RY*(   5) H  34                  0.00005     1.11744   
   521. RY*(   6) H  34                  0.00002     2.39780   
   522. RY*(   1) H  35                  0.00256     0.53588   
   523. RY*(   2) H  35                  0.00026     2.02708   
   524. RY*(   3) H  35                  0.00017     1.88047   
   525. RY*(   4) H  35                  0.00014     1.71170   
   526. RY*(   5) H  35                  0.00005     1.93849   
   527. RY*(   6) H  35                  0.00004     1.39230   
   528. RY*(   1) H  36                  0.00073     0.68143   
   529. RY*(   2) H  36                  0.00018     1.91362   
   530. RY*(   3) H  36                  0.00013     1.72856   
   531. RY*(   4) H  36                  0.00008     2.12758   
   532. RY*(   5) H  36                  0.00007     0.31791   
   533. RY*(   6) H  36                  0.00003     2.54397   
   534. RY*(   1) H  37                  0.00090     0.83119   
   535. RY*(   2) H  37                  0.00017     1.86703   
   536. RY*(   3) H  37                  0.00015     1.71200   
   537. RY*(   4) H  37                  0.00011     2.24178   
   538. RY*(   5) H  37                  0.00007     0.32579   
   539. RY*(   6) H  37                  0.00002     2.42256   
   540. RY*(   1) H  38                  0.00099     0.87382   
   541. RY*(   2) H  38                  0.00018     1.41962   
   542. RY*(   3) H  38                  0.00013     1.41440   
   543. RY*(   4) H  38                  0.00014     1.72965   
   544. RY*(   5) H  38                  0.00011     1.51960   
   545. RY*(   6) H  38                  0.00003     2.65119   
   546. RY*(   1) H  39                  0.00072     0.61686   
   547. RY*(   2) H  39                  0.00018     1.92615   
   548. RY*(   3) H  39                  0.00013     1.80490   
   549. RY*(   4) H  39                  0.00008     2.10726   
   550. RY*(   5) H  39                  0.00003     0.21460   
   551. RY*(   6) H  39                  0.00003     2.62336   
   552. RY*(   1) H  40                  0.00066     0.63174   
   553. RY*(   2) H  40                  0.00018     1.91214   
   554. RY*(   3) H  40                  0.00014     1.72389   
   555. RY*(   4) H  40                  0.00008     1.93538   
   556. RY*(   5) H  40                  0.00003     0.52436   
   557. RY*(   6) H  40                  0.00003     2.56616   
   558. RY*(   1) H  41                  0.00092     0.70157   
   559. RY*(   2) H  41                  0.00018     1.87233   
   560. RY*(   3) H  41                  0.00014     1.84890   
   561. RY*(   4) H  41                  0.00010     2.22799   
   562. RY*(   5) H  41                  0.00004     0.37162   
   563. RY*(   6) H  41                  0.00003     2.32094   
   564. BD*(   1) C   1 - C   2          0.02773     0.54364   
   565. BD*(   2) C   1 - C   2          0.39089    -0.00023  571(v),576(v),85(g),582(r)
                                                    580(v),104(g),119(v),579(v)
   566. BD*(   1) C   1 - C   6          0.01390     0.55813   
   567. BD*(   1) C   1 - H  24          0.01323     0.41511   
   568. BD*(   1) C   2 - C   3          0.02451     0.54217   
   569. BD*(   1) C   2 - N   7          0.03056     0.37183   
   570. BD*(   1) C   3 - C   4          0.01351     0.55981   
   571. BD*(   2) C   3 - C   4          0.32421     0.00700  565(v),576(v),137(g),136(g)
                                                    119(g),120(g)
   572. BD*(   1) C   3 - H  25          0.01291     0.41247   
   573. BD*(   1) C   4 - C   5          0.02405     0.55756   
   574. BD*(   1) C   4 - H  26          0.01390     0.41962   
   575. BD*(   1) C   5 - C   6          0.02377     0.56057   
   576. BD*(   2) C   5 - C   6          0.33878     0.01551  571(v),565(v),170(g),600(v)
                                                    136(v)
   577. BD*(   1) C   5 - C  18          0.01572     0.40153   
   578. BD*(   1) C   6 - H  27          0.01417     0.41939   
   579. BD*(   1) N   7 - C   8          0.02768     0.44376   
   580. BD*(   1) N   7 - H  28          0.02312     0.36364   
   581. BD*(   1) C   8 - C   9          0.02717     0.59514   
   582. BD*(   2) C   8 - C   9          0.29588    -0.00233  591(v),565(r),221(g),587(v)
                                                    588(v),205(g),287(v),185(v)
   583. BD*(   1) C   8 - C  10          0.03678     0.36205   
   584. BD*(   1) C   9 - C  11          0.08308     0.42795   
   585. BD*(   1) C   9 -Cl  13          0.02889     0.14428   
   586. BD*(   1) C  10 - O  12          0.02924     0.25567   
   587. BD*(   1) C  10 - C  15          0.05339     0.33501   
   588. BD*(   1) C  10 - H  22          0.02861     0.37478   
   589. BD*(   1) C  11 - O  12          0.11661     0.32585  586(g),587(v),583(v),254(g)
                                                    585(v),581(v),262(g),259(g)
   590. BD*(   1) C  11 - O  14          0.01302     0.63989   
   591. BD*(   2) C  11 - O  14          0.27770     0.01765  582(v),255(g),309(g),260(g)
   592. BD*(   1) C  15 - C  16          0.02133     0.38069   
   593. BD*(   1) C  15 - O  17          0.02289     0.27302   
   594. BD*(   1) C  15 - H  23          0.03294     0.37148   
   595. BD*(   1) C  16 - C  19          0.01933     0.39025   
   596. BD*(   1) C  16 - H  29          0.01359     0.42403   
   597. BD*(   1) C  16 - H  30          0.01449     0.40822   
   598. BD*(   1) O  17 - H  31          0.00672     0.42194   
   599. BD*(   1) C  18 - H  32          0.00486     0.38697   
   600. BD*(   1) C  18 - H  33          0.01018     0.38284   
   601. BD*(   1) C  18 - H  34          0.00583     0.38639   
   602. BD*(   1) C  19 - C  20          0.01625     0.38211   
   603. BD*(   1) C  19 - C  21          0.01289     0.38628   
   604. BD*(   1) C  19 - H  35          0.02536     0.39394   
   605. BD*(   1) C  20 - H  36          0.00629     0.40925   
   606. BD*(   1) C  20 - H  37          0.00920     0.40085   
   607. BD*(   1) C  20 - H  38          0.00674     0.41125   
   608. BD*(   1) C  21 - H  39          0.00551     0.41303   
   609. BD*(   1) C  21 - H  40          0.00575     0.41835   
   610. BD*(   1) C  21 - H  41          0.00907     0.40550   
       -------------------------------
              Total Lewis  161.10984  ( 98.2377%)
        Valence non-Lewis    2.57224  (  1.5684%)
        Rydberg non-Lewis    0.31793  (  0.1939%)
       -------------------------------
            Total unit  1  164.00000  (100.0000%)
           Charge unit  1    0.00000
 Leave Link  607 at Fri Jul 05 14:56:23 2019, MaxMem=   209715200 cpu:         9.0
 (Enter C:\G09W\l9999.exe)
 1|1|UNPC-CCSC-02011910|FOpt|RB3LYP|6-311++G(d,p)|C16H20Cl1N1O3|EDUARDO
 .MELO|05-Jul-2019|0||#p opt b3lyp/6-311++g(d,p) pop=nbo geom=connectiv
 ity||9ab.log||0,1|C,1.8563808925,-1.058038323,-1.0225356226|C,1.415503
 2447,-1.4934231858,0.2288312918|C,2.3512179958,-1.6979982265,1.2463249
 909|C,3.7017533922,-1.4608821785,1.0135235158|C,4.1563627009,-0.994367
 3556,-0.2255322833|C,3.2087103196,-0.8007030302,-1.235067021|N,0.04241
 49992,-1.7833433661,0.4853415703|C,-1.0331391567,-1.0897134958,0.01087
 49756|C,-2.2993551487,-1.5360486121,-0.1283078939|C,-1.0418227722,0.39
 95534632,-0.2728516038|C,-3.1818964776,-0.4476346581,-0.5546455287|O,-
 2.3912615223,0.6790554024,-0.6711584032|Cl,-2.8528778197,-3.1486728647
 ,0.1598386796|O,-4.3534631178,-0.4432170501,-0.8017158913|C,-0.6359836
 92,1.259707861,0.9486304684|C,-0.8761140791,2.7544727049,0.7227250915|
 O,-1.3857875554,0.9111830202,2.1089064467|C,5.6170998462,-0.6945856987
 ,-0.4560765553|C,-0.1136647461,3.4190216414,-0.4384769926|C,1.41118496
 44,3.3587364352,-0.259992532|C,-0.5803192238,4.8740436794,-0.592807329
 2|H,-0.3940703737,0.6585680589,-1.1131376781|H,0.4306286609,1.07048580
 14,1.1232963055|H,1.1521814414,-0.9499730197,-1.8388371305|H,2.0162026
 776,-2.0395862255,2.2197053444|H,4.4131061001,-1.6317804748,1.81489910
 95|H,3.5324746147,-0.4646157545,-2.2146439516|H,-0.1611796343,-2.73028
 20911,0.7805740939|H,-1.9512984293,2.8927189368,0.5832187475|H,-0.6119
 189734,3.2565906991,1.6600744761|H,-1.1471479848,0.0216212745,2.390377
 4225|H,5.8733366998,-0.7542085123,-1.5159402513|H,5.8687235434,0.31495
 00362,-0.1134560451|H,6.2579756252,-1.3925241503,0.0876650837|H,-0.371
 2921402,2.8990323702,-1.3701242519|H,1.9187684547,3.8713084694,-1.0823
 769037|H,1.7106215775,3.8510328669,0.6719055734|H,1.790637999,2.333709
 8903,-0.2310977048|H,-0.0778953962,5.3613540457,-1.4333732401|H,-1.658
 2215334,4.9286013687,-0.767353957|H,-0.3578509731,5.4535592476,0.30981
 65842||Version=IA32W-G09RevD.01|State=1-A|HF=-1362.6543805|RMSD=9.595e
 -009|RMSF=8.122e-006|Dipole=3.5140755,-0.4123842,0.2142618|Quadrupole=
 -10.5755336,5.385016,5.1905176,-1.5107137,-2.5827013,-4.8604331|PG=C01
  [X(C16H20Cl1N1O3)]||@


 Experience is what you get when you don't get what you want.
 -- Dan Stanford
 Job cpu time:       0 days  5 hours 10 minutes 52.0 seconds.
 File lengths (MBytes):  RWF=    219 Int=      0 D2E=      0 Chk=     25 Scr=      1
 Normal termination of Gaussian 09 at Fri Jul 05 14:56:24 2019.
