 Entering Link 1 = C:\G09W\l1.exe PID=      1864.
  
 Copyright (c) 1988,1990,1992,1993,1995,1998,2003,2009,2013,
            Gaussian, Inc.  All Rights Reserved.
  
 This is part of the Gaussian(R) 09 program.  It is based on
 the Gaussian(R) 03 system (copyright 2003, Gaussian, Inc.),
 the Gaussian(R) 98 system (copyright 1998, Gaussian, Inc.),
 the Gaussian(R) 94 system (copyright 1995, Gaussian, Inc.),
 the Gaussian 92(TM) system (copyright 1992, Gaussian, Inc.),
 the Gaussian 90(TM) system (copyright 1990, Gaussian, Inc.),
 the Gaussian 88(TM) system (copyright 1988, Gaussian, Inc.),
 the Gaussian 86(TM) system (copyright 1986, Carnegie Mellon
 University), and the Gaussian 82(TM) system (copyright 1983,
 Carnegie Mellon University). Gaussian is a federally registered
 trademark of Gaussian, Inc.
  
 This software contains proprietary and confidential information,
 including trade secrets, belonging to Gaussian, Inc.
  
 This software is provided under written license and may be
 used, copied, transmitted, or stored only in accord with that
 written license.
  
 The following legend is applicable only to US Government
 contracts under FAR:
  
                    RESTRICTED RIGHTS LEGEND
  
 Use, reproduction and disclosure by the US Government is
 subject to restrictions as set forth in subparagraphs (a)
 and (c) of the Commercial Computer Software - Restricted
 Rights clause in FAR 52.227-19.
  
 Gaussian, Inc.
 340 Quinnipiac St., Bldg. 40, Wallingford CT 06492
  
  
 ---------------------------------------------------------------
 Warning -- This program may not be used in any manner that
 competes with the business of Gaussian, Inc. or will provide
 assistance to any competitor of Gaussian, Inc.  The licensee
 of this program is prohibited from giving any competitor of
 Gaussian, Inc. access to this program.  By using this program,
 the user acknowledges that Gaussian, Inc. is engaged in the
 business of creating and licensing software in the field of
 computational chemistry and represents and warrants to the
 licensee that it is not a competitor of Gaussian, Inc. and that
 it will not use this program in any manner prohibited above.
 ---------------------------------------------------------------
  

 Cite this work as:
 Gaussian 09, Revision D.01,
 M. J. Frisch, G. W. Trucks, H. B. Schlegel, G. E. Scuseria, 
 M. A. Robb, J. R. Cheeseman, G. Scalmani, V. Barone, B. Mennucci, 
 G. A. Petersson, H. Nakatsuji, M. Caricato, X. Li, H. P. Hratchian, 
 A. F. Izmaylov, J. Bloino, G. Zheng, J. L. Sonnenberg, M. Hada, 
 M. Ehara, K. Toyota, R. Fukuda, J. Hasegawa, M. Ishida, T. Nakajima, 
 Y. Honda, O. Kitao, H. Nakai, T. Vreven, J. A. Montgomery, Jr., 
 J. E. Peralta, F. Ogliaro, M. Bearpark, J. J. Heyd, E. Brothers, 
 K. N. Kudin, V. N. Staroverov, T. Keith, R. Kobayashi, J. Normand, 
 K. Raghavachari, A. Rendell, J. C. Burant, S. S. Iyengar, J. Tomasi, 
 M. Cossi, N. Rega, J. M. Millam, M. Klene, J. E. Knox, J. B. Cross, 
 V. Bakken, C. Adamo, J. Jaramillo, R. Gomperts, R. E. Stratmann, 
 O. Yazyev, A. J. Austin, R. Cammi, C. Pomelli, J. W. Ochterski, 
 R. L. Martin, K. Morokuma, V. G. Zakrzewski, G. A. Voth, 
 P. Salvador, J. J. Dannenberg, S. Dapprich, A. D. Daniels, 
 O. Farkas, J. B. Foresman, J. V. Ortiz, J. Cioslowski, 
 and D. J. Fox, Gaussian, Inc., Wallingford CT, 2013.
 
 ******************************************
 Gaussian 09:  IA32W-G09RevD.01 24-Apr-2013
                05-Jul-2019 
 ******************************************
 %nprocshared=4
 Will use up to    4 processors via shared memory.
 %mem=1600MB
 ----------------------------------------------------
 #p opt b3lyp/6-311++g(d,p) pop=nbo geom=connectivity
 ----------------------------------------------------
 1/14=-1,18=20,19=15,26=3,38=1,57=2/1,3;
 2/9=110,12=2,17=6,18=5,40=1/2;
 3/5=4,6=6,7=1111,11=2,16=1,25=1,30=1,71=1,74=-5/1,2,3;
 4//1;
 5/5=2,38=5/2;
 6/7=2,8=2,9=2,10=2,28=1,40=1/1,7;
 7//1,2,3,16;
 1/14=-1,18=20,19=15,26=3/3(2);
 2/9=110/2;
 99//99;
 2/9=110/2;
 3/5=4,6=6,7=1111,11=2,16=1,25=1,30=1,71=1,74=-5/1,2,3;
 4/5=5,16=3,69=1/1;
 5/5=2,38=5/2;
 7//1,2,3,16;
 1/14=-1,18=20,19=15,26=3/3(-5);
 2/9=110/2;
 6/7=2,8=2,9=2,10=2,19=2,28=1,40=1/1,7;
 99/9=1/99;
 Leave Link    1 at Fri Jul 05 14:56:24 2019, MaxMem=   209715200 cpu:         0.0
 (Enter C:\G09W\l101.exe)
 ------
 9b.log
 ------
 Symbolic Z-matrix:
 Charge =  0 Multiplicity = 1
 C                     1.86945  -3.8162   -0.60574 
 C                     0.98292  -3.36824  -1.57522 
 C                    -0.15616  -2.65765  -1.23112 
 C                    -0.41566  -2.36103   0.09678 
 C                     0.46063  -2.80466   1.07689 
 C                     1.58381  -3.52936   0.72594 
 C                     3.11946  -4.57731  -0.97843 
 N                    -1.58906  -1.6469    0.47978 
 C                    -1.95003  -0.43016   0.02204 
 C                    -0.97425   0.59262  -0.52642 
 O                    -1.79659   1.68843  -0.86837 
 C                    -3.09131   1.47447  -0.5261 
 C                    -3.16393   0.12325   0.01412 
 O                    -3.92986   2.28742  -0.68787 
 Cl                   -4.63007  -0.59215   0.55292 
 C                     0.07685   1.02858   0.50858 
 O                    -0.54604   1.67279   1.578 
 C                     1.21586   1.85946  -0.0735 
 C                     2.46884   1.87389   0.5389 
 C                     3.51192   2.63905   0.05108 
 C                     3.321     3.42294  -1.07275 
 C                     2.08838   3.43571  -1.6966 
 C                     1.05237   2.66365  -1.19842 
 Cl                    2.78791   0.91799   1.96807 
 H                    -0.49025   0.22929  -1.42336 
 H                     0.50193   0.12703   0.91916 
 H                     1.1709   -3.58641  -2.61195 
 H                    -0.84875  -2.34793  -1.99407 
 H                     0.25911  -2.57404   2.10762 
 H                     2.25291  -3.86687   1.49831 
 H                     3.05549  -4.97014  -1.98631 
 H                     3.99279  -3.93308  -0.92816 
 H                     3.28707  -5.40968  -0.30353 
 H                    -2.32233  -2.18253   0.88988 
 H                    -0.85847   2.51979   1.29866 
 H                     4.46156   2.61839   0.55127 
 H                     4.13234   4.01846  -1.45103 
 H                     1.92573   4.04525  -2.56707 
 H                     0.09904   2.69853  -1.68889 
 
 NAtoms=     39 NQM=       39 NQMF=       0 NMMI=      0 NMMIF=      0
                NMic=       0 NMicF=      0.
                    Isotopes and Nuclear Properties:
 (Nuclear quadrupole moments (NQMom) in fm**2, nuclear magnetic moments (NMagM)
  in nuclear magnetons)

  Atom         1           2           3           4           5           6           7           8           9          10
 IAtWgt=          12          12          12          12          12          12          12          14          12          12
 AtmWgt=  12.0000000  12.0000000  12.0000000  12.0000000  12.0000000  12.0000000  12.0000000  14.0030740  12.0000000  12.0000000
 NucSpn=           0           0           0           0           0           0           0           2           0           0
 AtZEff=   0.0000000   0.0000000   0.0000000   0.0000000   0.0000000   0.0000000   0.0000000   0.0000000   0.0000000   0.0000000
 NQMom=    0.0000000   0.0000000   0.0000000   0.0000000   0.0000000   0.0000000   0.0000000   2.0440000   0.0000000   0.0000000
 NMagM=    0.0000000   0.0000000   0.0000000   0.0000000   0.0000000   0.0000000   0.0000000   0.4037610   0.0000000   0.0000000
 AtZNuc=   6.0000000   6.0000000   6.0000000   6.0000000   6.0000000   6.0000000   6.0000000   7.0000000   6.0000000   6.0000000

  Atom        11          12          13          14          15          16          17          18          19          20
 IAtWgt=          16          12          12          16          35          12          16          12          12          12
 AtmWgt=  15.9949146  12.0000000  12.0000000  15.9949146  34.9688527  12.0000000  15.9949146  12.0000000  12.0000000  12.0000000
 NucSpn=           0           0           0           0           3           0           0           0           0           0
 AtZEff=   0.0000000   0.0000000   0.0000000   0.0000000   0.0000000   0.0000000   0.0000000   0.0000000   0.0000000   0.0000000
 NQMom=    0.0000000   0.0000000   0.0000000   0.0000000  -8.1650000   0.0000000   0.0000000   0.0000000   0.0000000   0.0000000
 NMagM=    0.0000000   0.0000000   0.0000000   0.0000000   0.8218740   0.0000000   0.0000000   0.0000000   0.0000000   0.0000000
 AtZNuc=   8.0000000   6.0000000   6.0000000   8.0000000  17.0000000   6.0000000   8.0000000   6.0000000   6.0000000   6.0000000

  Atom        21          22          23          24          25          26          27          28          29          30
 IAtWgt=          12          12          12          35           1           1           1           1           1           1
 AtmWgt=  12.0000000  12.0000000  12.0000000  34.9688527   1.0078250   1.0078250   1.0078250   1.0078250   1.0078250   1.0078250
 NucSpn=           0           0           0           3           1           1           1           1           1           1
 AtZEff=   0.0000000   0.0000000   0.0000000   0.0000000   0.0000000   0.0000000   0.0000000   0.0000000   0.0000000   0.0000000
 NQMom=    0.0000000   0.0000000   0.0000000  -8.1650000   0.0000000   0.0000000   0.0000000   0.0000000   0.0000000   0.0000000
 NMagM=    0.0000000   0.0000000   0.0000000   0.8218740   2.7928460   2.7928460   2.7928460   2.7928460   2.7928460   2.7928460
 AtZNuc=   6.0000000   6.0000000   6.0000000  17.0000000   1.0000000   1.0000000   1.0000000   1.0000000   1.0000000   1.0000000

  Atom        31          32          33          34          35          36          37          38          39
 IAtWgt=           1           1           1           1           1           1           1           1           1
 AtmWgt=   1.0078250   1.0078250   1.0078250   1.0078250   1.0078250   1.0078250   1.0078250   1.0078250   1.0078250
 NucSpn=           1           1           1           1           1           1           1           1           1
 AtZEff=   0.0000000   0.0000000   0.0000000   0.0000000   0.0000000   0.0000000   0.0000000   0.0000000   0.0000000
 NQMom=    0.0000000   0.0000000   0.0000000   0.0000000   0.0000000   0.0000000   0.0000000   0.0000000   0.0000000
 NMagM=    2.7928460   2.7928460   2.7928460   2.7928460   2.7928460   2.7928460   2.7928460   2.7928460   2.7928460
 AtZNuc=   1.0000000   1.0000000   1.0000000   1.0000000   1.0000000   1.0000000   1.0000000   1.0000000   1.0000000
 Leave Link  101 at Fri Jul 05 14:56:24 2019, MaxMem=   209715200 cpu:         0.0
 (Enter C:\G09W\l103.exe)

 GradGradGradGradGradGradGradGradGradGradGradGradGradGradGradGradGradGrad
 Berny optimization.
 Initialization pass.
                           ----------------------------
                           !    Initial Parameters    !
                           ! (Angstroms and Degrees)  !
 --------------------------                            --------------------------
 ! Name  Definition              Value          Derivative Info.                !
 --------------------------------------------------------------------------------
 ! R1    R(1,2)                  1.388          estimate D2E/DX2                !
 ! R2    R(1,6)                  1.3918         estimate D2E/DX2                !
 ! R3    R(1,7)                  1.5102         estimate D2E/DX2                !
 ! R4    R(2,3)                  1.386          estimate D2E/DX2                !
 ! R5    R(2,27)                 1.076          estimate D2E/DX2                !
 ! R6    R(3,4)                  1.3851         estimate D2E/DX2                !
 ! R7    R(3,28)                 1.076          estimate D2E/DX2                !
 ! R8    R(4,5)                  1.3876         estimate D2E/DX2                !
 ! R9    R(4,8)                  1.426          estimate D2E/DX2                !
 ! R10   R(5,6)                  1.382          estimate D2E/DX2                !
 ! R11   R(5,29)                 1.0753         estimate D2E/DX2                !
 ! R12   R(6,30)                 1.0762         estimate D2E/DX2                !
 ! R13   R(7,31)                 1.0836         estimate D2E/DX2                !
 ! R14   R(7,32)                 1.0864         estimate D2E/DX2                !
 ! R15   R(7,33)                 1.0846         estimate D2E/DX2                !
 ! R16   R(8,9)                  1.3492         estimate D2E/DX2                !
 ! R17   R(8,34)                 0.9964         estimate D2E/DX2                !
 ! R18   R(9,10)                 1.5163         estimate D2E/DX2                !
 ! R19   R(9,13)                 1.3341         estimate D2E/DX2                !
 ! R20   R(10,11)                1.4121         estimate D2E/DX2                !
 ! R21   R(10,16)                1.5382         estimate D2E/DX2                !
 ! R22   R(10,25)                1.082          estimate D2E/DX2                !
 ! R23   R(11,12)                1.3562         estimate D2E/DX2                !
 ! R24   R(12,13)                1.457          estimate D2E/DX2                !
 ! R25   R(12,14)                1.1791         estimate D2E/DX2                !
 ! R26   R(13,15)                1.718          estimate D2E/DX2                !
 ! R27   R(16,17)                1.3952         estimate D2E/DX2                !
 ! R28   R(16,18)                1.5253         estimate D2E/DX2                !
 ! R29   R(16,26)                1.078          estimate D2E/DX2                !
 ! R30   R(17,35)                0.945          estimate D2E/DX2                !
 ! R31   R(18,19)                1.3947         estimate D2E/DX2                !
 ! R32   R(18,23)                1.3924         estimate D2E/DX2                !
 ! R33   R(19,20)                1.3826         estimate D2E/DX2                !
 ! R34   R(19,24)                1.7487         estimate D2E/DX2                !
 ! R35   R(20,21)                1.3834         estimate D2E/DX2                !
 ! R36   R(20,36)                1.0735         estimate D2E/DX2                !
 ! R37   R(21,22)                1.3816         estimate D2E/DX2                !
 ! R38   R(21,37)                1.0752         estimate D2E/DX2                !
 ! R39   R(22,23)                1.3848         estimate D2E/DX2                !
 ! R40   R(22,38)                1.075          estimate D2E/DX2                !
 ! R41   R(23,39)                1.0727         estimate D2E/DX2                !
 ! A1    A(2,1,6)              118.0795         estimate D2E/DX2                !
 ! A2    A(2,1,7)              121.2621         estimate D2E/DX2                !
 ! A3    A(6,1,7)              120.6534         estimate D2E/DX2                !
 ! A4    A(1,2,3)              121.1314         estimate D2E/DX2                !
 ! A5    A(1,2,27)             119.7338         estimate D2E/DX2                !
 ! A6    A(3,2,27)             119.1284         estimate D2E/DX2                !
 ! A7    A(2,3,4)              120.1178         estimate D2E/DX2                !
 ! A8    A(2,3,28)             120.0379         estimate D2E/DX2                !
 ! A9    A(4,3,28)             119.8379         estimate D2E/DX2                !
 ! A10   A(3,4,5)              119.3662         estimate D2E/DX2                !
 ! A11   A(3,4,8)              121.2564         estimate D2E/DX2                !
 ! A12   A(5,4,8)              119.3442         estimate D2E/DX2                !
 ! A13   A(4,5,6)              120.102          estimate D2E/DX2                !
 ! A14   A(4,5,29)             119.352          estimate D2E/DX2                !
 ! A15   A(6,5,29)             120.5451         estimate D2E/DX2                !
 ! A16   A(1,6,5)              121.187          estimate D2E/DX2                !
 ! A17   A(1,6,30)             119.633          estimate D2E/DX2                !
 ! A18   A(5,6,30)             119.1765         estimate D2E/DX2                !
 ! A19   A(1,7,31)             111.3077         estimate D2E/DX2                !
 ! A20   A(1,7,32)             110.7997         estimate D2E/DX2                !
 ! A21   A(1,7,33)             111.1687         estimate D2E/DX2                !
 ! A22   A(31,7,32)            107.7862         estimate D2E/DX2                !
 ! A23   A(31,7,33)            108.0392         estimate D2E/DX2                !
 ! A24   A(32,7,33)            107.5808         estimate D2E/DX2                !
 ! A25   A(4,8,9)              125.497          estimate D2E/DX2                !
 ! A26   A(4,8,34)             116.5447         estimate D2E/DX2                !
 ! A27   A(9,8,34)             115.3122         estimate D2E/DX2                !
 ! A28   A(8,9,10)             123.9778         estimate D2E/DX2                !
 ! A29   A(8,9,13)             128.283          estimate D2E/DX2                !
 ! A30   A(10,9,13)            107.6739         estimate D2E/DX2                !
 ! A31   A(9,10,11)            103.6673         estimate D2E/DX2                !
 ! A32   A(9,10,16)            112.8017         estimate D2E/DX2                !
 ! A33   A(9,10,25)            111.1744         estimate D2E/DX2                !
 ! A34   A(11,10,16)           109.9342         estimate D2E/DX2                !
 ! A35   A(11,10,25)           108.6829         estimate D2E/DX2                !
 ! A36   A(16,10,25)           110.3213         estimate D2E/DX2                !
 ! A37   A(10,11,12)           111.8649         estimate D2E/DX2                !
 ! A38   A(11,12,13)           106.7065         estimate D2E/DX2                !
 ! A39   A(11,12,14)           122.3819         estimate D2E/DX2                !
 ! A40   A(13,12,14)           130.9071         estimate D2E/DX2                !
 ! A41   A(9,13,12)            109.9707         estimate D2E/DX2                !
 ! A42   A(9,13,15)            127.0053         estimate D2E/DX2                !
 ! A43   A(12,13,15)           123.0232         estimate D2E/DX2                !
 ! A44   A(10,16,17)           109.9708         estimate D2E/DX2                !
 ! A45   A(10,16,18)           114.072          estimate D2E/DX2                !
 ! A46   A(10,16,26)           106.7801         estimate D2E/DX2                !
 ! A47   A(17,16,18)           111.9849         estimate D2E/DX2                !
 ! A48   A(17,16,26)           105.6797         estimate D2E/DX2                !
 ! A49   A(18,16,26)           107.8459         estimate D2E/DX2                !
 ! A50   A(16,17,35)           109.5645         estimate D2E/DX2                !
 ! A51   A(16,18,19)           120.5931         estimate D2E/DX2                !
 ! A52   A(16,18,23)           122.3594         estimate D2E/DX2                !
 ! A53   A(19,18,23)           117.0157         estimate D2E/DX2                !
 ! A54   A(18,19,20)           121.9106         estimate D2E/DX2                !
 ! A55   A(18,19,24)           121.1389         estimate D2E/DX2                !
 ! A56   A(20,19,24)           116.9506         estimate D2E/DX2                !
 ! A57   A(19,20,21)           119.742          estimate D2E/DX2                !
 ! A58   A(19,20,36)           119.4947         estimate D2E/DX2                !
 ! A59   A(21,20,36)           120.7633         estimate D2E/DX2                !
 ! A60   A(20,21,22)           119.6818         estimate D2E/DX2                !
 ! A61   A(20,21,37)           119.7031         estimate D2E/DX2                !
 ! A62   A(22,21,37)           120.6149         estimate D2E/DX2                !
 ! A63   A(21,22,23)           119.9924         estimate D2E/DX2                !
 ! A64   A(21,22,38)           120.388          estimate D2E/DX2                !
 ! A65   A(23,22,38)           119.6193         estimate D2E/DX2                !
 ! A66   A(18,23,22)           121.6548         estimate D2E/DX2                !
 ! A67   A(18,23,39)           119.5065         estimate D2E/DX2                !
 ! A68   A(22,23,39)           118.8349         estimate D2E/DX2                !
 ! D1    D(6,1,2,3)             -0.1154         estimate D2E/DX2                !
 ! D2    D(6,1,2,27)          -179.1871         estimate D2E/DX2                !
 ! D3    D(7,1,2,3)           -179.306          estimate D2E/DX2                !
 ! D4    D(7,1,2,27)             1.6222         estimate D2E/DX2                !
 ! D5    D(2,1,6,5)             -0.8399         estimate D2E/DX2                !
 ! D6    D(2,1,6,30)           179.8468         estimate D2E/DX2                !
 ! D7    D(7,1,6,5)            178.3559         estimate D2E/DX2                !
 ! D8    D(7,1,6,30)            -0.9574         estimate D2E/DX2                !
 ! D9    D(2,1,7,31)           -17.6362         estimate D2E/DX2                !
 ! D10   D(2,1,7,32)           102.2908         estimate D2E/DX2                !
 ! D11   D(2,1,7,33)          -138.1325         estimate D2E/DX2                !
 ! D12   D(6,1,7,31)           163.1938         estimate D2E/DX2                !
 ! D13   D(6,1,7,32)           -76.8791         estimate D2E/DX2                !
 ! D14   D(6,1,7,33)            42.6975         estimate D2E/DX2                !
 ! D15   D(1,2,3,4)              1.1715         estimate D2E/DX2                !
 ! D16   D(1,2,3,28)          -177.905          estimate D2E/DX2                !
 ! D17   D(27,2,3,4)          -179.7512         estimate D2E/DX2                !
 ! D18   D(27,2,3,28)            1.1723         estimate D2E/DX2                !
 ! D19   D(2,3,4,5)             -1.2672         estimate D2E/DX2                !
 ! D20   D(2,3,4,8)           -179.1563         estimate D2E/DX2                !
 ! D21   D(28,3,4,5)           177.8112         estimate D2E/DX2                !
 ! D22   D(28,3,4,8)            -0.0779         estimate D2E/DX2                !
 ! D23   D(3,4,5,6)              0.3261         estimate D2E/DX2                !
 ! D24   D(3,4,5,29)           179.9832         estimate D2E/DX2                !
 ! D25   D(8,4,5,6)            178.256          estimate D2E/DX2                !
 ! D26   D(8,4,5,29)            -2.087          estimate D2E/DX2                !
 ! D27   D(3,4,8,9)            -56.5829         estimate D2E/DX2                !
 ! D28   D(3,4,8,34)           104.0348         estimate D2E/DX2                !
 ! D29   D(5,4,8,9)            125.5275         estimate D2E/DX2                !
 ! D30   D(5,4,8,34)           -73.8548         estimate D2E/DX2                !
 ! D31   D(4,5,6,1)              0.7402         estimate D2E/DX2                !
 ! D32   D(4,5,6,30)          -179.9434         estimate D2E/DX2                !
 ! D33   D(29,5,6,1)          -178.9126         estimate D2E/DX2                !
 ! D34   D(29,5,6,30)            0.4037         estimate D2E/DX2                !
 ! D35   D(4,8,9,10)           -24.6928         estimate D2E/DX2                !
 ! D36   D(4,8,9,13)           158.6192         estimate D2E/DX2                !
 ! D37   D(34,8,9,10)          174.4799         estimate D2E/DX2                !
 ! D38   D(34,8,9,13)           -2.2081         estimate D2E/DX2                !
 ! D39   D(8,9,10,11)         -179.7448         estimate D2E/DX2                !
 ! D40   D(8,9,10,16)          -60.8733         estimate D2E/DX2                !
 ! D41   D(8,9,10,25)           63.6573         estimate D2E/DX2                !
 ! D42   D(13,9,10,11)          -2.4729         estimate D2E/DX2                !
 ! D43   D(13,9,10,16)         116.3986         estimate D2E/DX2                !
 ! D44   D(13,9,10,25)        -119.0709         estimate D2E/DX2                !
 ! D45   D(8,9,13,12)          177.789          estimate D2E/DX2                !
 ! D46   D(8,9,13,15)           -1.9081         estimate D2E/DX2                !
 ! D47   D(10,9,13,12)           0.6712         estimate D2E/DX2                !
 ! D48   D(10,9,13,15)        -179.0259         estimate D2E/DX2                !
 ! D49   D(9,10,11,12)           3.5172         estimate D2E/DX2                !
 ! D50   D(16,10,11,12)       -117.3096         estimate D2E/DX2                !
 ! D51   D(25,10,11,12)        121.853          estimate D2E/DX2                !
 ! D52   D(9,10,16,17)         -63.5834         estimate D2E/DX2                !
 ! D53   D(9,10,16,18)         169.6473         estimate D2E/DX2                !
 ! D54   D(9,10,16,26)          50.6162         estimate D2E/DX2                !
 ! D55   D(11,10,16,17)         51.5744         estimate D2E/DX2                !
 ! D56   D(11,10,16,18)        -75.1949         estimate D2E/DX2                !
 ! D57   D(11,10,16,26)        165.774          estimate D2E/DX2                !
 ! D58   D(25,10,16,17)        171.4204         estimate D2E/DX2                !
 ! D59   D(25,10,16,18)         44.6511         estimate D2E/DX2                !
 ! D60   D(25,10,16,26)        -74.38           estimate D2E/DX2                !
 ! D61   D(10,11,12,13)         -3.2121         estimate D2E/DX2                !
 ! D62   D(10,11,12,14)        177.4868         estimate D2E/DX2                !
 ! D63   D(11,12,13,9)           1.4855         estimate D2E/DX2                !
 ! D64   D(11,12,13,15)       -178.803          estimate D2E/DX2                !
 ! D65   D(14,12,13,9)        -179.2954         estimate D2E/DX2                !
 ! D66   D(14,12,13,15)          0.4161         estimate D2E/DX2                !
 ! D67   D(10,16,17,35)        -71.2166         estimate D2E/DX2                !
 ! D68   D(18,16,17,35)         56.7152         estimate D2E/DX2                !
 ! D69   D(26,16,17,35)        173.8825         estimate D2E/DX2                !
 ! D70   D(10,16,18,19)       -153.715          estimate D2E/DX2                !
 ! D71   D(10,16,18,23)         28.3974         estimate D2E/DX2                !
 ! D72   D(17,16,18,19)         80.5693         estimate D2E/DX2                !
 ! D73   D(17,16,18,23)        -97.3184         estimate D2E/DX2                !
 ! D74   D(26,16,18,19)        -35.29           estimate D2E/DX2                !
 ! D75   D(26,16,18,23)        146.8224         estimate D2E/DX2                !
 ! D76   D(16,18,19,20)       -178.6024         estimate D2E/DX2                !
 ! D77   D(16,18,19,24)          1.3501         estimate D2E/DX2                !
 ! D78   D(23,18,19,20)         -0.6052         estimate D2E/DX2                !
 ! D79   D(23,18,19,24)        179.3473         estimate D2E/DX2                !
 ! D80   D(16,18,23,22)        178.5003         estimate D2E/DX2                !
 ! D81   D(16,18,23,39)         -0.7894         estimate D2E/DX2                !
 ! D82   D(19,18,23,22)          0.5414         estimate D2E/DX2                !
 ! D83   D(19,18,23,39)       -178.7484         estimate D2E/DX2                !
 ! D84   D(18,19,20,21)          0.2958         estimate D2E/DX2                !
 ! D85   D(18,19,20,36)       -179.7947         estimate D2E/DX2                !
 ! D86   D(24,19,20,21)       -179.6586         estimate D2E/DX2                !
 ! D87   D(24,19,20,36)          0.2509         estimate D2E/DX2                !
 ! D88   D(19,20,21,22)          0.1012         estimate D2E/DX2                !
 ! D89   D(19,20,21,37)        179.9422         estimate D2E/DX2                !
 ! D90   D(36,20,21,22)       -179.8072         estimate D2E/DX2                !
 ! D91   D(36,20,21,37)          0.0338         estimate D2E/DX2                !
 ! D92   D(20,21,22,23)         -0.1622         estimate D2E/DX2                !
 ! D93   D(20,21,22,38)        179.6275         estimate D2E/DX2                !
 ! D94   D(37,21,22,23)        179.9983         estimate D2E/DX2                !
 ! D95   D(37,21,22,38)         -0.212          estimate D2E/DX2                !
 ! D96   D(21,22,23,18)         -0.1708         estimate D2E/DX2                !
 ! D97   D(21,22,23,39)        179.1235         estimate D2E/DX2                !
 ! D98   D(38,22,23,18)       -179.9622         estimate D2E/DX2                !
 ! D99   D(38,22,23,39)         -0.6678         estimate D2E/DX2                !
 --------------------------------------------------------------------------------
 Trust Radius=3.00D-01 FncErr=1.00D-07 GrdErr=1.00D-06
 Number of steps in this run=    218 maximum allowed number of steps=    234.
 GradGradGradGradGradGradGradGradGradGradGradGradGradGradGradGradGradGrad

 Leave Link  103 at Fri Jul 05 14:56:25 2019, MaxMem=   209715200 cpu:         1.0
 (Enter C:\G09W\l202.exe)
                          Input orientation:                          
 ---------------------------------------------------------------------
 Center     Atomic      Atomic             Coordinates (Angstroms)
 Number     Number       Type             X           Y           Z
 ---------------------------------------------------------------------
      1          6           0        1.869445   -3.816203   -0.605741
      2          6           0        0.982922   -3.368239   -1.575223
      3          6           0       -0.156163   -2.657645   -1.231121
      4          6           0       -0.415658   -2.361032    0.096779
      5          6           0        0.460629   -2.804659    1.076892
      6          6           0        1.583806   -3.529362    0.725936
      7          6           0        3.119457   -4.577311   -0.978433
      8          7           0       -1.589057   -1.646898    0.479777
      9          6           0       -1.950025   -0.430164    0.022042
     10          6           0       -0.974246    0.592616   -0.526418
     11          8           0       -1.796586    1.688428   -0.868372
     12          6           0       -3.091311    1.474466   -0.526102
     13          6           0       -3.163932    0.123245    0.014118
     14          8           0       -3.929864    2.287415   -0.687871
     15         17           0       -4.630066   -0.592150    0.552917
     16          6           0        0.076845    1.028575    0.508578
     17          8           0       -0.546035    1.672785    1.578001
     18          6           0        1.215860    1.859461   -0.073503
     19          6           0        2.468835    1.873893    0.538895
     20          6           0        3.511920    2.639052    0.051076
     21          6           0        3.321000    3.422936   -1.072745
     22          6           0        2.088378    3.435711   -1.696596
     23          6           0        1.052372    2.663646   -1.198416
     24         17           0        2.787913    0.917992    1.968074
     25          1           0       -0.490252    0.229289   -1.423362
     26          1           0        0.501930    0.127026    0.919158
     27          1           0        1.170904   -3.586411   -2.611948
     28          1           0       -0.848754   -2.347929   -1.994069
     29          1           0        0.259110   -2.574040    2.107622
     30          1           0        2.252911   -3.866866    1.498306
     31          1           0        3.055494   -4.970140   -1.986308
     32          1           0        3.992791   -3.933083   -0.928155
     33          1           0        3.287072   -5.409683   -0.303528
     34          1           0       -2.322331   -2.182530    0.889882
     35          1           0       -0.858474    2.519785    1.298662
     36          1           0        4.461556    2.618385    0.551273
     37          1           0        4.132345    4.018457   -1.451029
     38          1           0        1.925734    4.045252   -2.567069
     39          1           0        0.099035    2.698525   -1.688887
 ---------------------------------------------------------------------
                    Distance matrix (angstroms):
                    1          2          3          4          5
     1  C    0.000000
     2  C    1.387981   0.000000
     3  C    2.415873   1.385953   0.000000
     4  C    2.798706   2.401267   1.385148   0.000000
     5  C    2.416451   2.761182   2.393527   1.387554   0.000000
     6  C    1.391844   2.383769   2.759974   2.399727   1.381988
     7  C    1.510204   2.526419   3.805083   4.308713   3.799477
     8  N    4.224390   3.714985   2.449891   1.426022   2.428615
     9  C    5.142735   4.448114   3.122504   2.467411   3.544318
    10  C    5.246957   4.540801   3.424918   3.069924   4.021312
    11  O    6.618891   5.813363   4.659498   4.385955   5.391373
    12  C    7.253042   6.414969   5.117273   4.717854   5.787640
    13  C    6.421710   5.649147   4.281430   3.705600   4.779074
    14  O    8.419791   7.543824   6.244162   5.879913   6.951261
    15  Cl   7.347152   6.613719   5.240694   4.593282   5.575385
    16  C    5.284600   4.949260   4.082776   3.449866   3.894092
    17  O    6.382183   6.139418   5.176465   4.299151   4.616491
    18  C    5.737910   5.444104   4.860738   4.528069   4.862900
    19  C    5.834951   5.844432   5.527966   5.142991   5.119686
    20  C    6.693239   6.717754   6.569160   6.358364   6.324292
    21  C    7.397989   7.199941   7.006369   6.984603   7.182312
    22  C    7.336767   6.894237   6.510270   6.564192   7.020258
    23  C    6.557996   6.044042   5.456901   5.392590   5.952272
    24  Cl   5.466325   5.846770   5.629175   4.951425   4.479798
    25  H    4.754228   3.890438   2.912552   3.004356   4.044785
    26  H    4.443475   4.320899   3.579271   2.776456   2.936216
    27  H    2.136734   1.075981   2.128473   3.369857   3.837078
    28  H    3.387018   2.138107   1.075963   2.135273   3.369553
    29  H    3.390942   3.836405   3.365508   2.131707   1.075267
    30  H    2.139305   3.362749   3.836095   3.369432   2.125594
    31  H    2.155052   2.651534   4.028980   4.816180   4.561340
    32  H    2.150863   3.130025   4.351132   4.791269   4.215415
    33  H    2.154107   3.330737   4.504443   4.812975   4.084175
    34  H    4.740966   4.290378   3.068660   2.072746   2.857776
    35  H    7.156328   6.805790   5.805069   5.046086   5.489892
    36  H    7.032897   7.243103   7.234414   6.984868   6.759667
    37  H    8.198605   8.031038   7.937884   7.986108   8.150263
    38  H    8.102620   7.538733   7.144780   7.322478   7.895965
    39  H    6.837341   6.131868   5.381750   5.390049   6.169710
                    6          7          8          9         10
     6  C    0.000000
     7  C    2.522161   0.000000
     8  N    3.697475   5.734440   0.000000
     9  C    4.752731   6.625664   1.349170   0.000000
    10  C    5.010262   6.609907   2.530977   1.516256   0.000000
    11  O    6.418271   7.964865   3.603467   2.303218   1.412083
    12  C    6.961509   8.683447   3.607142   2.287053   2.293387
    13  C    6.032349   7.909574   2.414638   1.334127   2.303739
    14  O    8.138446   9.843872   4.724574   3.436419   3.410878
    15  Cl   6.875271   8.847692   3.219562   2.736912   3.991698
    16  C    4.805514   6.549401   3.151859   2.544177   1.538203
    17  O    5.685470   7.683416   3.648875   2.968938   2.403895
    18  C    5.460211   6.773080   4.524183   3.908240   2.570329
    19  C    5.478451   6.659101   5.372704   5.010204   3.825097
    20  C    6.497876   7.299987   6.676310   6.265283   4.964583
    21  C    7.388338   8.003341   7.226493   6.620320   5.172845
    22  C    7.391583   8.110943   6.640259   5.848710   4.339605
    23  C    6.506835   7.533438   5.326750   4.480577   2.974547
    24  Cl   4.771974   6.244212   5.286923   5.296473   4.525726
    25  H    4.800902   6.027550   2.889531   2.157547   1.082019
    26  H    3.817979   5.708160   2.777065   2.669712   2.117914
    27  H    3.363809   2.728940   4.575791   5.161395   5.139589
    28  H    3.835565   4.663514   2.675707   2.992545   3.288853
    29  H    2.139279   4.660302   2.631576   3.718350   4.299656
    30  H    1.076181   2.718432   4.552623   5.626273   5.865239
    31  H    3.405580   1.083613   6.220721   7.049828   7.022417
    32  H    2.949952   1.086402   6.194025   6.963503   6.731627
    33  H    2.737977   1.084636   6.208764   7.233864   7.364517
    34  H    4.135062   6.232065   0.996383   1.990614   3.394801
    35  H    6.548658   8.448542   4.308778   3.394619   2.656746
    36  H    6.790195   7.477919   7.403220   7.119137   5.900263
    37  H    8.258559   8.668132   8.280018   7.678241   6.218405
    38  H    8.266533   8.848578   7.351027   6.461761   4.949226
    39  H    6.842696   7.909835   5.141542   4.112739   2.634031
                   11         12         13         14         15
    11  O    0.000000
    12  C    1.356186   0.000000
    13  C    2.257924   1.457021   0.000000
    14  O    2.223115   1.179079   2.400640   0.000000
    15  Cl   3.905087   2.793376   1.718035   3.212745   0.000000
    16  C    2.416845   3.362528   3.400992   4.366908   4.978326
    17  O    2.747519   3.308324   3.420554   4.118525   4.781217
    18  C    3.120240   4.347964   4.712186   5.199910   6.370059
    19  C    4.495399   5.675296   5.921843   6.528346   7.515049
    20  C    5.470768   6.729937   7.134259   7.486644   8.774078
    21  C    5.407400   6.724068   7.356873   7.349324   9.054454
    22  C    4.339573   5.660894   6.440942   6.209295   8.149936
    23  C    3.029281   4.363057   5.069625   5.022438   6.779194
    24  Cl   5.445790   6.410605   6.314588   7.352407   7.701273
    25  H    2.035586   3.020107   3.037459   4.075262   4.660311
    26  H    3.304000   4.100701   3.775931   5.185617   5.195068
    27  H    6.298411   6.937558   6.280810   8.013847   7.254876
    28  H    4.296249   4.668479   3.936949   5.717150   4.885511
    29  H    5.590265   5.878114   4.834803   6.999716   5.499913
    30  H    7.270549   7.822325   6.889556   8.993400   7.680683
    31  H    8.314384   9.024875   8.284053  10.156440   9.202298
    32  H    8.069811   8.921196   8.280118  10.075753   9.365312
    33  H    8.749046   9.387482   8.504684  10.558276   9.307158
    34  H    4.283945   3.996243   2.606118   5.005385   2.822852
    35  H    2.503447   3.067249   3.564911   3.665207   4.946229
    36  H    6.484177   7.714602   8.041289   8.488872   9.641843
    37  H    6.396933   7.714181   8.399702   8.281191  10.102145
    38  H    4.721849   5.995434   6.924548   6.396046   8.615006
    39  H    2.299330   3.609529   4.492132   4.171699   6.182121
                   16         17         18         19         20
    16  C    0.000000
    17  O    1.395225   0.000000
    18  C    1.525302   2.422104   0.000000
    19  C    2.537144   3.195251   1.394699   0.000000
    20  C    3.821346   4.442091   2.427998   1.382556   0.000000
    21  C    4.331061   5.004342   2.806163   2.392301   1.383437
    22  C    3.834496   4.557524   2.424929   2.753442   2.390710
    23  C    2.557135   3.353387   1.392434   2.376621   2.758842
    24  Cl   3.080949   3.440506   2.743310   1.748745   2.676026
    25  H    2.166299   3.330912   2.718529   3.912975   4.898807
    26  H    1.077991   1.980322   2.120472   2.657980   4.015455
    27  H    5.677389   6.939935   6.008598   6.436409   7.164387
    28  H    4.303575   5.386786   5.064912   5.936841   6.933114
    29  H    3.945757   4.354800   5.032754   5.208445   6.479698
    30  H    5.447951   6.207107   6.028008   5.824380   6.782813
    31  H    7.147124   8.354865   7.327109   7.318580   7.890441
    32  H    6.482043   7.635936   6.480381   6.180263   6.662063
    33  H    7.239906   8.270079   7.561963   7.377646   8.059680
    34  H    4.026491   4.300255   5.457527   6.287530   7.615099
    35  H    1.929446   0.945017   2.573271   3.473530   4.546541
    36  H    4.664227   5.198490   3.391291   2.127289   1.073514
    37  H    5.406157   6.046854   3.881330   3.365445   2.131667
    38  H    4.688106   5.377718   3.391088   3.828416   3.368689
    39  H    2.760087   3.484367   2.135601   3.355441   3.831291
                   21         22         23         24         25
    21  C    0.000000
    22  C    1.381561   0.000000
    23  C    2.395618   1.384766   0.000000
    24  Cl   3.975614   4.500896   4.010744   0.000000
    25  H    4.984772   4.123728   2.890741   4.766814   0.000000
    26  H    4.772615   4.506260   3.349858   2.636583   2.546033
    27  H    7.491529   7.140716   6.409004   6.624271   4.328018
    28  H    7.179037   6.493514   5.418785   6.292072   2.663885
    29  H    7.446719   7.344073   6.244398   4.313769   4.570344
    30  H    7.803354   7.972584   7.166672   4.837538   5.730582
    31  H    8.446823   8.466261   7.931454   7.097805   6.318488
    32  H    7.388046   7.649602   7.227443   5.776920   6.137446
    33  H    8.866116   9.034296   8.424568   6.741573   6.878969
    34  H    8.192700   7.596634   6.263787   6.073741   3.811100
    35  H    4.889505   4.300515   3.147607   4.038563   3.576503
    36  H    2.141403   3.369408   3.832231   2.774841   5.841863
    37  H    1.075186   2.139555   3.374250   4.807353   5.977204
    38  H    2.137065   1.075043   2.131855   5.575897   4.659037
    39  H    3.359384   2.121553   1.072674   4.875831   2.552428
                   26         27         28         29         30
    26  H    0.000000
    27  H    5.167770   0.000000
    28  H    4.054213   2.448393   0.000000
    29  H    2.960940   4.912291   4.254687   0.000000
    30  H    4.399150   4.259528   4.911637   2.453142   0.000000
    31  H    6.398713   2.420291   4.703106   5.506480   3.742177
    32  H    5.664200   3.304298   5.204752   5.000331   2.986516
    33  H    6.317209   3.623712   5.416394   4.798236   2.587736
    34  H    3.648473   5.141633   3.242832   2.880974   4.913248
    35  H    2.778492   7.529733   5.876803   5.277354   7.107031
    36  H    4.692638   7.702847   7.703404   6.858867   6.916174
    37  H    5.825885   8.243293   8.101673   8.433680   8.626075
    38  H    5.434473   7.669033   6.992773   8.273173   8.901457
    39  H    3.684675   6.442155   5.143747   6.499157   7.609319
                   31         32         33         34         35
    31  H    0.000000
    32  H    1.753197   0.000000
    33  H    1.754587   1.751727   0.000000
    34  H    6.705538   6.800769   6.580589   0.000000
    35  H    9.066926   8.374544   9.090051   4.941836   0.000000
    36  H    8.124164   6.732769   8.158430   8.317726   5.373177
    37  H    9.068683   7.969935   9.535254   9.251754   5.891952
    38  H    9.104446   8.403130   9.816958   8.293481   5.002273
    39  H    8.224204   7.727760   8.821895   6.028081   3.142327
                   36         37         38         39
    36  H    0.000000
    37  H    2.465318   0.000000
    38  H    4.265020   2.472933   0.000000
    39  H    4.904725   4.250457   2.433456   0.000000
 Stoichiometry    C18H15Cl2NO3
 Framework group  C1[X(C18H15Cl2NO3)]
 Deg. of freedom   111
 Full point group                 C1      NOp   1
 Largest Abelian subgroup         C1      NOp   1
 Largest concise Abelian subgroup C1      NOp   1
                         Standard orientation:                         
 ---------------------------------------------------------------------
 Center     Atomic      Atomic             Coordinates (Angstroms)
 Number     Number       Type             X           Y           Z
 ---------------------------------------------------------------------
      1          6           0       -1.869446    3.816202   -0.605741
      2          6           0       -0.982923    3.368239   -1.575223
      3          6           0        0.156162    2.657645   -1.231121
      4          6           0        0.415657    2.361032    0.096779
      5          6           0       -0.460630    2.804659    1.076892
      6          6           0       -1.583807    3.529361    0.725936
      7          6           0       -3.119459    4.577310   -0.978433
      8          7           0        1.589056    1.646899    0.479777
      9          6           0        1.950025    0.430165    0.022042
     10          6           0        0.974246   -0.592616   -0.526418
     11          8           0        1.796587   -1.688427   -0.868372
     12          6           0        3.091312   -1.474465   -0.526102
     13          6           0        3.163932   -0.123244    0.014118
     14          8           0        3.929865   -2.287414   -0.687871
     15         17           0        4.630066    0.592152    0.552917
     16          6           0       -0.076845   -1.028575    0.508578
     17          8           0        0.546036   -1.672785    1.578001
     18          6           0       -1.215859   -1.859461   -0.073503
     19          6           0       -2.468834   -1.873894    0.538895
     20          6           0       -3.511919   -2.639053    0.051076
     21          6           0       -3.320999   -3.422937   -1.072745
     22          6           0       -2.088377   -3.435712   -1.696596
     23          6           0       -1.052371   -2.663646   -1.198416
     24         17           0       -2.787913   -0.917993    1.968074
     25          1           0        0.490252   -0.229289   -1.423362
     26          1           0       -0.501930   -0.127026    0.919158
     27          1           0       -1.170905    3.586411   -2.611948
     28          1           0        0.848753    2.347929   -1.994069
     29          1           0       -0.259111    2.574040    2.107622
     30          1           0       -2.252912    3.866865    1.498306
     31          1           0       -3.055496    4.970139   -1.986308
     32          1           0       -3.992792    3.933082   -0.928155
     33          1           0       -3.287074    5.409682   -0.303528
     34          1           0        2.322330    2.182531    0.889882
     35          1           0        0.858475   -2.519785    1.298662
     36          1           0       -4.461555   -2.618387    0.551273
     37          1           0       -4.132344   -4.018458   -1.451029
     38          1           0       -1.925733   -4.045253   -2.567069
     39          1           0       -0.099034   -2.698525   -1.688887
 ---------------------------------------------------------------------
 Rotational constants (GHZ):      0.2133040      0.1806515      0.1163344
 Leave Link  202 at Fri Jul 05 14:56:25 2019, MaxMem=   209715200 cpu:         0.0
 (Enter C:\G09W\l301.exe)
 Standard basis: 6-311++G(d,p) (5D, 7F)
 Ernie: Thresh=  0.10000D-02 Tol=  0.10000D-05 Strict=F.
 There are   673 symmetry adapted cartesian basis functions of A   symmetry.
 There are   649 symmetry adapted basis functions of A   symmetry.
   649 basis functions,  1033 primitive gaussians,   673 cartesian basis functions
    94 alpha electrons       94 beta electrons
       nuclear repulsion energy      2330.3220053818 Hartrees.
 IExCor=  402 DFT=T Ex+Corr=B3LYP ExCW=0 ScaHFX=  0.200000
 ScaDFX=  0.800000  0.720000  1.000000  0.810000 ScalE2=  1.000000  1.000000
 IRadAn=      0 IRanWt=     -1 IRanGd=            0 ICorTp=0 IEmpDi=  4
 NAtoms=   39 NActive=   39 NUniq=   39 SFac= 1.00D+00 NAtFMM=   60 NAOKFM=F Big=F
 Integral buffers will be    262144 words long.
 Raffenetti 2 integral format.
 Two-electron integral symmetry is turned on.
 Leave Link  301 at Fri Jul 05 14:56:25 2019, MaxMem=   209715200 cpu:         0.0
 (Enter C:\G09W\l302.exe)
 NPDir=0 NMtPBC=     1 NCelOv=     1 NCel=       1 NClECP=     1 NCelD=      1
         NCelK=      1 NCelE2=     1 NClLst=     1 CellRange=     0.0.
 One-electron integrals computed using PRISM.
 NBasis=   649 RedAO= T EigKep=  1.04D-06  NBF=   649
 NBsUse=   644 1.00D-06 EigRej=  7.88D-07 NBFU=   644
 Precomputing XC quadrature grid using
 IXCGrd= 4 IRadAn=           0 IRanWt=          -1 IRanGd=           0 AccXCQ= 0.00D+00.
 Generated NRdTot=       0 NPtTot=           0 NUsed=           0 NTot=          16
 NSgBfM=   661   665   665   665   665 MxSgAt=    39 MxSgA2=    39.
 Leave Link  302 at Fri Jul 05 14:56:27 2019, MaxMem=   209715200 cpu:         2.0
 (Enter C:\G09W\l303.exe)
 DipDrv:  MaxL=1.
 Leave Link  303 at Fri Jul 05 14:56:27 2019, MaxMem=   209715200 cpu:         0.0
 (Enter C:\G09W\l401.exe)
 ExpMin= 3.60D-02 ExpMax= 1.06D+05 ExpMxC= 3.62D+03 IAcc=3 IRadAn=         5 AccDes= 0.00D+00
 Harris functional with IExCor=  402 and IRadAn=       5 diagonalized for initial guess.
 HarFok:  IExCor=  402 AccDes= 0.00D+00 IRadAn=         5 IDoV= 1 UseB2=F ITyADJ=14
 ICtDFT=  3500011 ScaDFX=  1.000000  1.000000  1.000000  1.000000
 FoFCou: FMM=F IPFlag=           0 FMFlag=      100000 FMFlg1=           0
         NFxFlg=           0 DoJE=T BraDBF=F KetDBF=T FulRan=T
         wScrn=  0.000000 ICntrl=     500 IOpCl=  0 I1Cent=   200000004 NGrid=           0
         NMat0=    1 NMatS0=      1 NMatT0=    0 NMatD0=    1 NMtDS0=    0 NMtDT0=    0
 Petite list used in FoFCou.
 Harris En= -1896.00626062965    
 JPrj=0 DoOrth=F DoCkMO=F.
 Leave Link  401 at Fri Jul 05 14:57:00 2019, MaxMem=   209715200 cpu:        33.0
 (Enter C:\G09W\l502.exe)
 Closed shell SCF:
 Using DIIS extrapolation, IDIIS=  1040.
 Integral symmetry usage will be decided dynamically.
 IVT=     1385446 IEndB=     1385446 NGot=   209715200 MDV=   208799997
 LenX=   208799997 LenY=   208346395
 Requested convergence on RMS density matrix=1.00D-08 within 128 cycles.
 Requested convergence on MAX density matrix=1.00D-06.
 Requested convergence on             energy=1.00D-06.
 No special actions if energy rises.
 Fock matrices will be formed incrementally for  20 cycles.

 Cycle   1  Pass 1  IDiag  1:
 FoFJK:  IHMeth= 1 ICntrl=       0 DoSepK=F KAlg= 0 I1Cent=   0 FoldK=F
 IRaf= 780000000 NMat=   1 IRICut=       1 DoRegI=T DoRafI=F ISym2E= 0.
 FoFCou: FMM=F IPFlag=           0 FMFlag=      100000 FMFlg1=           0
         NFxFlg=           0 DoJE=F BraDBF=F KetDBF=F FulRan=T
         wScrn=  0.000000 ICntrl=       0 IOpCl=  0 I1Cent=           0 NGrid=           0
         NMat0=    1 NMatS0=      1 NMatT0=    0 NMatD0=    1 NMtDS0=    0 NMtDT0=    0
 Symmetry not used in FoFCou.
 E= -1895.46781113143    
 DIIS: error= 2.10D-02 at cycle   1 NSaved=   1.
 NSaved= 1 IEnMin= 1 EnMin= -1895.46781113143     IErMin= 1 ErrMin= 2.10D-02
 ErrMax= 2.10D-02  0.00D+00 EMaxC= 1.00D-01 BMatC= 7.54D-01 BMatP= 7.54D-01
 IDIUse=3 WtCom= 7.90D-01 WtEn= 2.10D-01
 Coeff-Com:  0.100D+01
 Coeff-En:   0.100D+01
 Coeff:      0.100D+01
 Gap=     0.352 Goal=   None    Shift=    0.000
 GapD=    0.352 DampG=1.000 DampE=0.500 DampFc=0.5000 IDamp=-1.
 Damping current iteration by 5.00D-01
 RMSDP=2.55D-02 MaxDP=2.92D+00              OVMax= 2.90D-01

 Cycle   2  Pass 1  IDiag  1:
 RMSU=  1.27D-02    CP:  1.02D+00
 E= -1895.68047084003     Delta-E=       -0.212659708599 Rises=F Damp=T
 DIIS: error= 6.44D-03 at cycle   2 NSaved=   2.
 NSaved= 2 IEnMin= 2 EnMin= -1895.68047084003     IErMin= 2 ErrMin= 6.44D-03
 ErrMax= 6.44D-03  0.00D+00 EMaxC= 1.00D-01 BMatC= 8.13D-02 BMatP= 7.54D-01
 IDIUse=3 WtCom= 9.36D-01 WtEn= 6.44D-02
 Coeff-Com:  0.122D+00 0.878D+00
 Coeff-En:   0.262D+00 0.738D+00
 Coeff:      0.132D+00 0.868D+00
 Gap=     0.311 Goal=   None    Shift=    0.000
 RMSDP=1.23D-02 MaxDP=1.62D+00 DE=-2.13D-01 OVMax= 2.13D-01

 Cycle   3  Pass 1  IDiag  1:
 RMSU=  8.47D-03    CP:  9.22D-01  4.95D-01
 E= -1896.00974098519     Delta-E=       -0.329270145163 Rises=F Damp=F
 DIIS: error= 9.24D-03 at cycle   3 NSaved=   3.
 NSaved= 3 IEnMin= 3 EnMin= -1896.00974098519     IErMin= 2 ErrMin= 6.44D-03
 ErrMax= 9.24D-03  0.00D+00 EMaxC= 1.00D-01 BMatC= 8.57D-02 BMatP= 8.13D-02
 IDIUse=3 WtCom= 9.08D-01 WtEn= 9.24D-02
 Coeff-Com: -0.156D-01 0.510D+00 0.506D+00
 Coeff-En:   0.000D+00 0.000D+00 0.100D+01
 Coeff:     -0.141D-01 0.463D+00 0.551D+00
 Gap=     0.196 Goal=   None    Shift=    0.000
 RMSDP=5.52D-03 MaxDP=3.28D-01 DE=-3.29D-01 OVMax= 9.28D-02

 Cycle   4  Pass 1  IDiag  1:
 RMSU=  5.44D-03    CP:  9.32D-01  5.40D-01  9.57D-01
 E= -1896.05460860936     Delta-E=       -0.044867624172 Rises=F Damp=F
 DIIS: error= 5.04D-03 at cycle   4 NSaved=   4.
 NSaved= 4 IEnMin= 4 EnMin= -1896.05460860936     IErMin= 4 ErrMin= 5.04D-03
 ErrMax= 5.04D-03  0.00D+00 EMaxC= 1.00D-01 BMatC= 2.74D-02 BMatP= 8.13D-02
 IDIUse=3 WtCom= 9.50D-01 WtEn= 5.04D-02
 Coeff-Com: -0.330D-01 0.150D+00 0.383D+00 0.500D+00
 Coeff-En:   0.000D+00 0.000D+00 0.293D+00 0.707D+00
 Coeff:     -0.313D-01 0.143D+00 0.378D+00 0.510D+00
 Gap=     0.189 Goal=   None    Shift=    0.000
 RMSDP=4.27D-03 MaxDP=3.00D-01 DE=-4.49D-02 OVMax= 4.29D-02

 Cycle   5  Pass 1  IDiag  1:
 RMSU=  1.88D-03    CP:  9.05D-01  5.86D-01  9.71D-01  3.88D-01
 E= -1896.07713746376     Delta-E=       -0.022528854401 Rises=F Damp=F
 DIIS: error= 9.09D-04 at cycle   5 NSaved=   5.
 NSaved= 5 IEnMin= 5 EnMin= -1896.07713746376     IErMin= 5 ErrMin= 9.09D-04
 ErrMax= 9.09D-04  0.00D+00 EMaxC= 1.00D-01 BMatC= 1.14D-03 BMatP= 2.74D-02
 IDIUse=3 WtCom= 9.91D-01 WtEn= 9.09D-03
 Coeff-Com: -0.157D-01 0.447D-01 0.161D+00 0.279D+00 0.532D+00
 Coeff-En:   0.000D+00 0.000D+00 0.000D+00 0.000D+00 0.100D+01
 Coeff:     -0.156D-01 0.443D-01 0.159D+00 0.276D+00 0.536D+00
 Gap=     0.187 Goal=   None    Shift=    0.000
 RMSDP=9.35D-04 MaxDP=1.11D-01 DE=-2.25D-02 OVMax= 1.23D-02

 Cycle   6  Pass 1  IDiag  1:
 RMSU=  5.81D-04    CP:  9.03D-01  5.83D-01  1.01D+00  5.00D-01  8.93D-01
 E= -1896.07801713094     Delta-E=       -0.000879667177 Rises=F Damp=F
 DIIS: error= 3.52D-04 at cycle   6 NSaved=   6.
 NSaved= 6 IEnMin= 6 EnMin= -1896.07801713094     IErMin= 6 ErrMin= 3.52D-04
 ErrMax= 3.52D-04  0.00D+00 EMaxC= 1.00D-01 BMatC= 1.50D-04 BMatP= 1.14D-03
 IDIUse=3 WtCom= 9.96D-01 WtEn= 3.52D-03
 Coeff-Com: -0.539D-02 0.861D-02 0.474D-01 0.104D+00 0.318D+00 0.527D+00
 Coeff-En:   0.000D+00 0.000D+00 0.000D+00 0.000D+00 0.810D-01 0.919D+00
 Coeff:     -0.537D-02 0.858D-02 0.472D-01 0.104D+00 0.318D+00 0.528D+00
 Gap=     0.188 Goal=   None    Shift=    0.000
 RMSDP=3.42D-04 MaxDP=5.30D-02 DE=-8.80D-04 OVMax= 4.33D-03

 Cycle   7  Pass 1  IDiag  1:
 RMSU=  1.54D-04    CP:  9.05D-01  5.81D-01  9.99D-01  5.00D-01  8.57D-01
                    CP:  5.68D-01
 E= -1896.07813948401     Delta-E=       -0.000122353065 Rises=F Damp=F
 DIIS: error= 1.09D-04 at cycle   7 NSaved=   7.
 NSaved= 7 IEnMin= 7 EnMin= -1896.07813948401     IErMin= 7 ErrMin= 1.09D-04
 ErrMax= 1.09D-04  0.00D+00 EMaxC= 1.00D-01 BMatC= 1.48D-05 BMatP= 1.50D-04
 IDIUse=3 WtCom= 9.99D-01 WtEn= 1.09D-03
 Coeff-Com: -0.178D-02 0.151D-02 0.149D-01 0.385D-01 0.142D+00 0.308D+00
 Coeff-Com:  0.496D+00
 Coeff-En:   0.000D+00 0.000D+00 0.000D+00 0.000D+00 0.000D+00 0.369D-01
 Coeff-En:   0.963D+00
 Coeff:     -0.178D-02 0.151D-02 0.149D-01 0.384D-01 0.142D+00 0.308D+00
 Coeff:      0.497D+00
 Gap=     0.188 Goal=   None    Shift=    0.000
 RMSDP=9.83D-05 MaxDP=9.42D-03 DE=-1.22D-04 OVMax= 1.52D-03

 Cycle   8  Pass 1  IDiag  1:
 RMSU=  4.19D-05    CP:  9.05D-01  5.80D-01  1.00D+00  5.06D-01  8.46D-01
                    CP:  6.22D-01  5.79D-01
 E= -1896.07815215718     Delta-E=       -0.000012673169 Rises=F Damp=F
 DIIS: error= 3.71D-05 at cycle   8 NSaved=   8.
 NSaved= 8 IEnMin= 8 EnMin= -1896.07815215718     IErMin= 8 ErrMin= 3.71D-05
 ErrMax= 3.71D-05  0.00D+00 EMaxC= 1.00D-01 BMatC= 1.55D-06 BMatP= 1.48D-05
 IDIUse=1 WtCom= 1.00D+00 WtEn= 0.00D+00
 Coeff-Com: -0.180D-03-0.410D-03 0.195D-02 0.689D-02 0.352D-01 0.960D-01
 Coeff-Com:  0.278D+00 0.582D+00
 Coeff:     -0.180D-03-0.410D-03 0.195D-02 0.689D-02 0.352D-01 0.960D-01
 Coeff:      0.278D+00 0.582D+00
 Gap=     0.188 Goal=   None    Shift=    0.000
 RMSDP=3.34D-05 MaxDP=2.30D-03 DE=-1.27D-05 OVMax= 4.67D-04

 Cycle   9  Pass 1  IDiag  1:
 RMSU=  1.67D-05    CP:  9.05D-01  5.80D-01  1.00D+00  5.02D-01  8.52D-01
                    CP:  6.19D-01  6.01D-01  8.36D-01
 E= -1896.07815335884     Delta-E=       -0.000001201667 Rises=F Damp=F
 DIIS: error= 1.73D-05 at cycle   9 NSaved=   9.
 NSaved= 9 IEnMin= 9 EnMin= -1896.07815335884     IErMin= 9 ErrMin= 1.73D-05
 ErrMax= 1.73D-05  0.00D+00 EMaxC= 1.00D-01 BMatC= 2.60D-07 BMatP= 1.55D-06
 IDIUse=1 WtCom= 1.00D+00 WtEn= 0.00D+00
 Coeff-Com:  0.107D-03-0.426D-03-0.430D-03-0.262D-03 0.533D-02 0.233D-01
 Coeff-Com:  0.113D+00 0.359D+00 0.500D+00
 Coeff:      0.107D-03-0.426D-03-0.430D-03-0.262D-03 0.533D-02 0.233D-01
 Coeff:      0.113D+00 0.359D+00 0.500D+00
 Gap=     0.188 Goal=   None    Shift=    0.000
 RMSDP=8.69D-06 MaxDP=6.79D-04 DE=-1.20D-06 OVMax= 1.36D-04

 Cycle  10  Pass 1  IDiag  1:
 RMSU=  4.29D-06    CP:  9.05D-01  5.80D-01  1.00D+00  5.03D-01  8.52D-01
                    CP:  6.20D-01  6.18D-01  8.22D-01  7.49D-01
 E= -1896.07815358102     Delta-E=       -0.000000222173 Rises=F Damp=F
 DIIS: error= 5.16D-06 at cycle  10 NSaved=  10.
 NSaved=10 IEnMin=10 EnMin= -1896.07815358102     IErMin=10 ErrMin= 5.16D-06
 ErrMax= 5.16D-06  0.00D+00 EMaxC= 1.00D-01 BMatC= 1.63D-08 BMatP= 2.60D-07
 IDIUse=1 WtCom= 1.00D+00 WtEn= 0.00D+00
 Coeff-Com:  0.739D-04-0.191D-03-0.379D-03-0.785D-03-0.230D-03 0.387D-02
 Coeff-Com:  0.328D-01 0.132D+00 0.266D+00 0.567D+00
 Coeff:      0.739D-04-0.191D-03-0.379D-03-0.785D-03-0.230D-03 0.387D-02
 Coeff:      0.328D-01 0.132D+00 0.266D+00 0.567D+00
 Gap=     0.188 Goal=   None    Shift=    0.000
 RMSDP=2.78D-06 MaxDP=3.40D-04 DE=-2.22D-07 OVMax= 4.04D-05

 Cycle  11  Pass 1  IDiag  1:
 RMSU=  1.50D-06    CP:  9.05D-01  5.80D-01  1.00D+00  5.03D-01  8.52D-01
                    CP:  6.20D-01  6.20D-01  8.44D-01  7.18D-01  7.30D-01
 E= -1896.07815359570     Delta-E=       -0.000000014679 Rises=F Damp=F
 DIIS: error= 2.76D-06 at cycle  11 NSaved=  11.
 NSaved=11 IEnMin=11 EnMin= -1896.07815359570     IErMin=11 ErrMin= 2.76D-06
 ErrMax= 2.76D-06  0.00D+00 EMaxC= 1.00D-01 BMatC= 2.44D-09 BMatP= 1.63D-08
 IDIUse=1 WtCom= 1.00D+00 WtEn= 0.00D+00
 Coeff-Com:  0.283D-04-0.589D-04-0.152D-03-0.397D-03-0.638D-03-0.165D-03
 Coeff-Com:  0.625D-02 0.354D-01 0.991D-01 0.336D+00 0.525D+00
 Coeff:      0.283D-04-0.589D-04-0.152D-03-0.397D-03-0.638D-03-0.165D-03
 Coeff:      0.625D-02 0.354D-01 0.991D-01 0.336D+00 0.525D+00
 Gap=     0.188 Goal=   None    Shift=    0.000
 RMSDP=9.70D-07 MaxDP=7.92D-05 DE=-1.47D-08 OVMax= 2.31D-05

 Cycle  12  Pass 1  IDiag  1:
 RMSU=  5.43D-07    CP:  9.05D-01  5.80D-01  1.00D+00  5.03D-01  8.52D-01
                    CP:  6.21D-01  6.21D-01  8.48D-01  7.27D-01  7.53D-01
                    CP:  7.55D-01
 E= -1896.07815359811     Delta-E=       -0.000000002410 Rises=F Damp=F
 DIIS: error= 6.32D-07 at cycle  12 NSaved=  12.
 NSaved=12 IEnMin=12 EnMin= -1896.07815359811     IErMin=12 ErrMin= 6.32D-07
 ErrMax= 6.32D-07  0.00D+00 EMaxC= 1.00D-01 BMatC= 2.26D-10 BMatP= 2.44D-09
 IDIUse=1 WtCom= 1.00D+00 WtEn= 0.00D+00
 Coeff-Com:  0.429D-05-0.462D-05-0.306D-04-0.103D-03-0.327D-03-0.612D-03
 Coeff-Com: -0.119D-02 0.568D-03 0.165D-01 0.994D-01 0.285D+00 0.601D+00
 Coeff:      0.429D-05-0.462D-05-0.306D-04-0.103D-03-0.327D-03-0.612D-03
 Coeff:     -0.119D-02 0.568D-03 0.165D-01 0.994D-01 0.285D+00 0.601D+00
 Gap=     0.188 Goal=   None    Shift=    0.000
 RMSDP=3.29D-07 MaxDP=3.48D-05 DE=-2.41D-09 OVMax= 5.22D-06

 Cycle  13  Pass 1  IDiag  1:
 RMSU=  2.28D-07    CP:  9.05D-01  5.80D-01  1.00D+00  5.03D-01  8.52D-01
                    CP:  6.21D-01  6.21D-01  8.48D-01  7.29D-01  7.68D-01
                    CP:  7.64D-01  7.14D-01
 E= -1896.07815359798     Delta-E=        0.000000000129 Rises=F Damp=F
 DIIS: error= 1.90D-07 at cycle  13 NSaved=  13.
 NSaved=13 IEnMin=12 EnMin= -1896.07815359811     IErMin=13 ErrMin= 1.90D-07
 ErrMax= 1.90D-07  0.00D+00 EMaxC= 1.00D-01 BMatC= 2.49D-11 BMatP= 2.26D-10
 IDIUse=1 WtCom= 1.00D+00 WtEn= 0.00D+00
 Coeff-Com:  0.364D-07 0.195D-05-0.512D-05-0.207D-04-0.122D-03-0.277D-03
 Coeff-Com: -0.102D-02-0.240D-02 0.284D-03 0.220D-01 0.110D+00 0.319D+00
 Coeff-Com:  0.553D+00
 Coeff:      0.364D-07 0.195D-05-0.512D-05-0.207D-04-0.122D-03-0.277D-03
 Coeff:     -0.102D-02-0.240D-02 0.284D-03 0.220D-01 0.110D+00 0.319D+00
 Coeff:      0.553D+00
 Gap=     0.188 Goal=   None    Shift=    0.000
 RMSDP=1.13D-07 MaxDP=1.08D-05 DE= 1.29D-10 OVMax= 1.69D-06

 Cycle  14  Pass 1  IDiag  1:
 RMSU=  5.94D-08    CP:  9.05D-01  5.80D-01  1.00D+00  5.03D-01  8.52D-01
                    CP:  6.21D-01  6.21D-01  8.48D-01  7.31D-01  7.75D-01
                    CP:  7.69D-01  7.67D-01  7.28D-01
 E= -1896.07815359815     Delta-E=       -0.000000000174 Rises=F Damp=F
 DIIS: error= 7.55D-08 at cycle  14 NSaved=  14.
 NSaved=14 IEnMin=14 EnMin= -1896.07815359815     IErMin=14 ErrMin= 7.55D-08
 ErrMax= 7.55D-08  0.00D+00 EMaxC= 1.00D-01 BMatC= 4.06D-12 BMatP= 2.49D-11
 IDIUse=1 WtCom= 1.00D+00 WtEn= 0.00D+00
 Coeff-Com: -0.472D-06 0.149D-05 0.553D-06 0.172D-05-0.316D-04-0.805D-04
 Coeff-Com: -0.434D-03-0.148D-02-0.227D-02-0.163D-02 0.258D-01 0.990D-01
 Coeff-Com:  0.322D+00 0.559D+00
 Coeff:     -0.472D-06 0.149D-05 0.553D-06 0.172D-05-0.316D-04-0.805D-04
 Coeff:     -0.434D-03-0.148D-02-0.227D-02-0.163D-02 0.258D-01 0.990D-01
 Coeff:      0.322D+00 0.559D+00
 Gap=     0.188 Goal=   None    Shift=    0.000
 RMSDP=3.83D-08 MaxDP=4.41D-06 DE=-1.74D-10 OVMax= 6.51D-07

 Cycle  15  Pass 1  IDiag  1:
 RMSU=  2.07D-08    CP:  9.05D-01  5.80D-01  1.00D+00  5.03D-01  8.52D-01
                    CP:  6.21D-01  6.20D-01  8.48D-01  7.30D-01  7.73D-01
                    CP:  7.75D-01  7.72D-01  7.28D-01  7.03D-01
 E= -1896.07815359801     Delta-E=        0.000000000139 Rises=F Damp=F
 DIIS: error= 1.69D-08 at cycle  15 NSaved=  15.
 NSaved=15 IEnMin=14 EnMin= -1896.07815359815     IErMin=15 ErrMin= 1.69D-08
 ErrMax= 1.69D-08  0.00D+00 EMaxC= 1.00D-01 BMatC= 2.78D-13 BMatP= 4.06D-12
 IDIUse=1 WtCom= 1.00D+00 WtEn= 0.00D+00
 Coeff-Com: -0.212D-06 0.491D-06 0.883D-06 0.286D-05-0.485D-05-0.161D-04
 Coeff-Com: -0.118D-03-0.514D-03-0.121D-02-0.313D-02 0.199D-02 0.158D-01
 Coeff-Com:  0.101D+00 0.274D+00 0.612D+00
 Coeff:     -0.212D-06 0.491D-06 0.883D-06 0.286D-05-0.485D-05-0.161D-04
 Coeff:     -0.118D-03-0.514D-03-0.121D-02-0.313D-02 0.199D-02 0.158D-01
 Coeff:      0.101D+00 0.274D+00 0.612D+00
 Gap=     0.188 Goal=   None    Shift=    0.000
 RMSDP=1.20D-08 MaxDP=9.08D-07 DE= 1.39D-10 OVMax= 2.06D-07

 Cycle  16  Pass 1  IDiag  1:
 RMSU=  4.72D-09    CP:  9.05D-01  5.80D-01  1.00D+00  5.03D-01  8.52D-01
                    CP:  6.21D-01  6.21D-01  8.48D-01  7.30D-01  7.73D-01
                    CP:  7.77D-01  7.74D-01  7.42D-01  7.45D-01  7.99D-01
 E= -1896.07815359813     Delta-E=       -0.000000000116 Rises=F Damp=F
 DIIS: error= 1.15D-08 at cycle  16 NSaved=  16.
 NSaved=16 IEnMin=14 EnMin= -1896.07815359815     IErMin=16 ErrMin= 1.15D-08
 ErrMax= 1.15D-08  0.00D+00 EMaxC= 1.00D-01 BMatC= 4.66D-14 BMatP= 2.78D-13
 IDIUse=1 WtCom= 1.00D+00 WtEn= 0.00D+00
 Coeff-Com: -0.650D-07 0.114D-06 0.568D-06 0.154D-05 0.113D-05-0.204D-06
 Coeff-Com: -0.207D-04-0.134D-03-0.449D-03-0.156D-02-0.163D-02-0.166D-02
 Coeff-Com:  0.227D-01 0.947D-01 0.345D+00 0.543D+00
 Coeff:     -0.650D-07 0.114D-06 0.568D-06 0.154D-05 0.113D-05-0.204D-06
 Coeff:     -0.207D-04-0.134D-03-0.449D-03-0.156D-02-0.163D-02-0.166D-02
 Coeff:      0.227D-01 0.947D-01 0.345D+00 0.543D+00
 Gap=     0.188 Goal=   None    Shift=    0.000
 RMSDP=3.99D-09 MaxDP=3.12D-07 DE=-1.16D-10 OVMax= 8.77D-08

 SCF Done:  E(RB3LYP) =  -1896.07815360     A.U. after   16 cycles
            NFock= 16  Conv=0.40D-08     -V/T= 2.0028
 KE= 1.890801048789D+03 PE=-9.121946127223D+03 EE= 3.004744919454D+03
 Leave Link  502 at Fri Jul 05 15:22:58 2019, MaxMem=   209715200 cpu:      1558.0
 (Enter C:\G09W\l601.exe)
 Copying SCF densities to generalized density rwf, IOpCl= 0 IROHF=0.

 **********************************************************************

            Population analysis using the SCF density.

 **********************************************************************

 Orbital symmetries:
       Occupied  (A) (A) (A) (A) (A) (A) (A) (A) (A) (A) (A) (A)
                 (A) (A) (A) (A) (A) (A) (A) (A) (A) (A) (A) (A)
                 (A) (A) (A) (A) (A) (A) (A) (A) (A) (A) (A) (A)
                 (A) (A) (A) (A) (A) (A) (A) (A) (A) (A) (A) (A)
                 (A) (A) (A) (A) (A) (A) (A) (A) (A) (A) (A) (A)
                 (A) (A) (A) (A) (A) (A) (A) (A) (A) (A) (A) (A)
                 (A) (A) (A) (A) (A) (A) (A) (A) (A) (A) (A) (A)
                 (A) (A) (A) (A) (A) (A) (A) (A) (A) (A)
       Virtual   (A) (A) (A) (A) (A) (A) (A) (A) (A) (A) (A) (A)
                 (A) (A) (A) (A) (A) (A) (A) (A) (A) (A) (A) (A)
                 (A) (A) (A) (A) (A) (A) (A) (A) (A) (A) (A) (A)
                 (A) (A) (A) (A) (A) (A) (A) (A) (A) (A) (A) (A)
                 (A) (A) (A) (A) (A) (A) (A) (A) (A) (A) (A) (A)
                 (A) (A) (A) (A) (A) (A) (A) (A) (A) (A) (A) (A)
                 (A) (A) (A) (A) (A) (A) (A) (A) (A) (A) (A) (A)
                 (A) (A) (A) (A) (A) (A) (A) (A) (A) (A) (A) (A)
                 (A) (A) (A) (A) (A) (A) (A) (A) (A) (A) (A) (A)
                 (A) (A) (A) (A) (A) (A) (A) (A) (A) (A) (A) (A)
                 (A) (A) (A) (A) (A) (A) (A) (A) (A) (A) (A) (A)
                 (A) (A) (A) (A) (A) (A) (A) (A) (A) (A) (A) (A)
                 (A) (A) (A) (A) (A) (A) (A) (A) (A) (A) (A) (A)
                 (A) (A) (A) (A) (A) (A) (A) (A) (A) (A) (A) (A)
                 (A) (A) (A) (A) (A) (A) (A) (A) (A) (A) (A) (A)
                 (A) (A) (A) (A) (A) (A) (A) (A) (A) (A) (A) (A)
                 (A) (A) (A) (A) (A) (A) (A) (A) (A) (A) (A) (A)
                 (A) (A) (A) (A) (A) (A) (A) (A) (A) (A) (A) (A)
                 (A) (A) (A) (A) (A) (A) (A) (A) (A) (A) (A) (A)
                 (A) (A) (A) (A) (A) (A) (A) (A) (A) (A) (A) (A)
                 (A) (A) (A) (A) (A) (A) (A) (A) (A) (A) (A) (A)
                 (A) (A) (A) (A) (A) (A) (A) (A) (A) (A) (A) (A)
                 (A) (A) (A) (A) (A) (A) (A) (A) (A) (A) (A) (A)
                 (A) (A) (A) (A) (A) (A) (A) (A) (A) (A) (A) (A)
                 (A) (A) (A) (A) (A) (A) (A) (A) (A) (A) (A) (A)
                 (A) (A) (A) (A) (A) (A) (A) (A) (A) (A) (A) (A)
                 (A) (A) (A) (A) (A) (A) (A) (A) (A) (A) (A) (A)
                 (A) (A) (A) (A) (A) (A) (A) (A) (A) (A) (A) (A)
                 (A) (A) (A) (A) (A) (A) (A) (A) (A) (A) (A) (A)
                 (A) (A) (A) (A) (A) (A) (A) (A) (A) (A) (A) (A)
                 (A) (A) (A) (A) (A) (A) (A) (A) (A) (A) (A) (A)
                 (A) (A) (A) (A) (A) (A) (A) (A) (A) (A) (A) (A)
                 (A) (A) (A) (A) (A) (A) (A) (A) (A) (A) (A) (A)
                 (A) (A) (A) (A) (A) (A) (A) (A) (A) (A) (A) (A)
                 (A) (A) (A) (A) (A) (A) (A) (A) (A) (A) (A) (A)
                 (A) (A) (A) (A) (A) (A) (A) (A) (A) (A) (A) (A)
                 (A) (A) (A) (A) (A) (A) (A) (A) (A) (A) (A) (A)
                 (A) (A) (A) (A) (A) (A) (A) (A) (A) (A) (A) (A)
                 (A) (A) (A) (A) (A) (A) (A) (A) (A) (A) (A) (A)
                 (A) (A) (A) (A) (A) (A) (A) (A) (A) (A) (A) (A)
                 (A) (A) (A) (A) (A) (A) (A) (A) (A) (A) (A) (A)
                 (A) (A) (A) (A) (A) (A) (A) (A) (A) (A) (A) (A)
                 (A) (A) (A) (A) (A) (A) (A) (A) (A) (A) (A) (A)
                 (A) (A) (A) (A) (A) (A) (A) (A) (A) (A) (A) (A)
                 (A) (A) (A) (A) (A) (A) (A) (A) (A) (A) (A) (A)
                 (A) (A) (A) (A) (A) (A) (A) (A) (A) (A)
 The electronic state is 1-A.
 Alpha  occ. eigenvalues -- -101.56706-101.56063 -19.17495 -19.13909 -19.10560
 Alpha  occ. eigenvalues --  -14.36985 -10.30034 -10.26455 -10.25311 -10.25228
 Alpha  occ. eigenvalues --  -10.24877 -10.23762 -10.22824 -10.20726 -10.20554
 Alpha  occ. eigenvalues --  -10.19936 -10.19697 -10.19512 -10.19492 -10.19403
 Alpha  occ. eigenvalues --  -10.19362 -10.19210 -10.18932 -10.18317  -9.48144
 Alpha  occ. eigenvalues --   -9.47578  -7.24616  -7.24024  -7.23604  -7.23603
 Alpha  occ. eigenvalues --   -7.23066  -7.23020  -1.13217  -1.06100  -1.04255
 Alpha  occ. eigenvalues --   -0.99152  -0.91132  -0.89694  -0.88032  -0.85392
 Alpha  occ. eigenvalues --   -0.81791  -0.80352  -0.78267  -0.77810  -0.75912
 Alpha  occ. eigenvalues --   -0.75010  -0.71292  -0.68696  -0.64745  -0.63530
 Alpha  occ. eigenvalues --   -0.62703  -0.62494  -0.61046  -0.59225  -0.55580
 Alpha  occ. eigenvalues --   -0.55223  -0.54060  -0.53394  -0.52218  -0.50339
 Alpha  occ. eigenvalues --   -0.49512  -0.49211  -0.48938  -0.46388  -0.46072
 Alpha  occ. eigenvalues --   -0.45856  -0.45095  -0.44694  -0.44408  -0.44178
 Alpha  occ. eigenvalues --   -0.43662  -0.42031  -0.41543  -0.40954  -0.40000
 Alpha  occ. eigenvalues --   -0.39599  -0.39261  -0.38534  -0.38112  -0.37207
 Alpha  occ. eigenvalues --   -0.37134  -0.35626  -0.34653  -0.34092  -0.33071
 Alpha  occ. eigenvalues --   -0.33002  -0.31634  -0.30013  -0.28600  -0.28361
 Alpha  occ. eigenvalues --   -0.27767  -0.27479  -0.26172  -0.23493
 Alpha virt. eigenvalues --   -0.04735  -0.04175  -0.03799  -0.03371  -0.02423
 Alpha virt. eigenvalues --   -0.01892  -0.01003  -0.00630  -0.00318   0.00392
 Alpha virt. eigenvalues --    0.01100   0.01310   0.01637   0.01961   0.02173
 Alpha virt. eigenvalues --    0.02829   0.03305   0.03520   0.03734   0.04925
 Alpha virt. eigenvalues --    0.05074   0.05465   0.05760   0.06369   0.06810
 Alpha virt. eigenvalues --    0.06828   0.07027   0.07357   0.07619   0.08088
 Alpha virt. eigenvalues --    0.08292   0.08416   0.08944   0.09173   0.09580
 Alpha virt. eigenvalues --    0.09755   0.09949   0.10241   0.10439   0.10733
 Alpha virt. eigenvalues --    0.10795   0.10906   0.11069   0.11459   0.11637
 Alpha virt. eigenvalues --    0.11687   0.12039   0.12243   0.12529   0.12642
 Alpha virt. eigenvalues --    0.12874   0.13297   0.13516   0.13578   0.14011
 Alpha virt. eigenvalues --    0.14162   0.14437   0.14877   0.14903   0.15339
 Alpha virt. eigenvalues --    0.15444   0.15598   0.15981   0.16319   0.16496
 Alpha virt. eigenvalues --    0.16752   0.16985   0.17177   0.17366   0.17863
 Alpha virt. eigenvalues --    0.17987   0.18237   0.18300   0.18715   0.18915
 Alpha virt. eigenvalues --    0.19415   0.19894   0.20172   0.20490   0.20629
 Alpha virt. eigenvalues --    0.20694   0.21295   0.21578   0.21801   0.22110
 Alpha virt. eigenvalues --    0.22305   0.22899   0.23089   0.23328   0.23710
 Alpha virt. eigenvalues --    0.23960   0.24290   0.24457   0.24541   0.24888
 Alpha virt. eigenvalues --    0.25468   0.25965   0.26200   0.26274   0.26490
 Alpha virt. eigenvalues --    0.26595   0.26888   0.26939   0.27404   0.27827
 Alpha virt. eigenvalues --    0.28186   0.28540   0.28765   0.28941   0.29185
 Alpha virt. eigenvalues --    0.29333   0.29640   0.29927   0.30134   0.30480
 Alpha virt. eigenvalues --    0.30521   0.31093   0.31431   0.31654   0.32123
 Alpha virt. eigenvalues --    0.32316   0.32922   0.33214   0.33349   0.33404
 Alpha virt. eigenvalues --    0.34152   0.34354   0.34673   0.35370   0.35839
 Alpha virt. eigenvalues --    0.36164   0.36656   0.36797   0.36986   0.37516
 Alpha virt. eigenvalues --    0.37741   0.38470   0.38842   0.39408   0.40315
 Alpha virt. eigenvalues --    0.40963   0.41379   0.42448   0.42979   0.44132
 Alpha virt. eigenvalues --    0.44661   0.45003   0.45539   0.45782   0.46243
 Alpha virt. eigenvalues --    0.46789   0.47403   0.48006   0.49312   0.49543
 Alpha virt. eigenvalues --    0.50119   0.50710   0.51218   0.52029   0.52536
 Alpha virt. eigenvalues --    0.53500   0.54175   0.54427   0.54523   0.55063
 Alpha virt. eigenvalues --    0.55650   0.55934   0.56138   0.57047   0.57760
 Alpha virt. eigenvalues --    0.57977   0.58806   0.59288   0.60058   0.60258
 Alpha virt. eigenvalues --    0.60752   0.61080   0.61663   0.62274   0.62753
 Alpha virt. eigenvalues --    0.63335   0.63856   0.64367   0.65120   0.65174
 Alpha virt. eigenvalues --    0.66125   0.66489   0.66705   0.66957   0.67581
 Alpha virt. eigenvalues --    0.68317   0.68624   0.68863   0.69054   0.69802
 Alpha virt. eigenvalues --    0.70367   0.71240   0.71754   0.72251   0.72526
 Alpha virt. eigenvalues --    0.73299   0.74740   0.74791   0.75143   0.75629
 Alpha virt. eigenvalues --    0.76363   0.76689   0.77408   0.77876   0.78585
 Alpha virt. eigenvalues --    0.79080   0.79294   0.80010   0.81806   0.82767
 Alpha virt. eigenvalues --    0.83101   0.84341   0.84777   0.85027   0.85433
 Alpha virt. eigenvalues --    0.86063   0.86520   0.86958   0.87378   0.88077
 Alpha virt. eigenvalues --    0.88272   0.88448   0.88784   0.89315   0.90014
 Alpha virt. eigenvalues --    0.90462   0.91018   0.91726   0.91953   0.92519
 Alpha virt. eigenvalues --    0.92899   0.94193   0.95720   0.95918   0.96612
 Alpha virt. eigenvalues --    0.96895   0.97653   0.97816   0.98630   0.99301
 Alpha virt. eigenvalues --    0.99666   1.00321   1.00686   1.00835   1.02498
 Alpha virt. eigenvalues --    1.03181   1.03725   1.04048   1.04898   1.06311
 Alpha virt. eigenvalues --    1.07086   1.07974   1.08099   1.08899   1.09250
 Alpha virt. eigenvalues --    1.09953   1.10296   1.11370   1.12336   1.13400
 Alpha virt. eigenvalues --    1.14677   1.16651   1.17817   1.19121   1.20996
 Alpha virt. eigenvalues --    1.21872   1.23630   1.24055   1.24336   1.26230
 Alpha virt. eigenvalues --    1.27122   1.28823   1.29514   1.29721   1.31065
 Alpha virt. eigenvalues --    1.32027   1.32166   1.33153   1.34629   1.35615
 Alpha virt. eigenvalues --    1.36292   1.37271   1.38424   1.39062   1.40967
 Alpha virt. eigenvalues --    1.42599   1.42811   1.44718   1.46353   1.47381
 Alpha virt. eigenvalues --    1.48060   1.48524   1.50764   1.52107   1.52628
 Alpha virt. eigenvalues --    1.53008   1.54071   1.55392   1.55891   1.55962
 Alpha virt. eigenvalues --    1.56727   1.57595   1.57754   1.58031   1.58806
 Alpha virt. eigenvalues --    1.59585   1.59908   1.60452   1.62698   1.63152
 Alpha virt. eigenvalues --    1.64253   1.64810   1.65703   1.66453   1.67421
 Alpha virt. eigenvalues --    1.67957   1.69037   1.69779   1.71164   1.71723
 Alpha virt. eigenvalues --    1.73667   1.74940   1.75253   1.76094   1.76670
 Alpha virt. eigenvalues --    1.77585   1.77863   1.79059   1.79396   1.80223
 Alpha virt. eigenvalues --    1.81969   1.82898   1.83326   1.85197   1.87043
 Alpha virt. eigenvalues --    1.87786   1.88650   1.89435   1.90267   1.90685
 Alpha virt. eigenvalues --    1.91031   1.91301   1.92383   1.92850   1.94168
 Alpha virt. eigenvalues --    1.95130   1.95168   1.96309   1.96958   1.98085
 Alpha virt. eigenvalues --    1.98629   1.99312   2.01147   2.02181   2.03413
 Alpha virt. eigenvalues --    2.03732   2.04479   2.05424   2.07034   2.07506
 Alpha virt. eigenvalues --    2.07873   2.09347   2.10304   2.11327   2.12153
 Alpha virt. eigenvalues --    2.12935   2.15276   2.17255   2.17969   2.20413
 Alpha virt. eigenvalues --    2.21512   2.23588   2.24622   2.25725   2.27662
 Alpha virt. eigenvalues --    2.28079   2.29800   2.30405   2.32431   2.33635
 Alpha virt. eigenvalues --    2.34705   2.35221   2.36671   2.39492   2.40750
 Alpha virt. eigenvalues --    2.42580   2.43731   2.45767   2.46331   2.47363
 Alpha virt. eigenvalues --    2.47589   2.48137   2.51686   2.52758   2.54767
 Alpha virt. eigenvalues --    2.55636   2.56327   2.57196   2.58185   2.58944
 Alpha virt. eigenvalues --    2.60418   2.61313   2.62359   2.62972   2.64411
 Alpha virt. eigenvalues --    2.65174   2.67357   2.67639   2.69511   2.69996
 Alpha virt. eigenvalues --    2.70674   2.72583   2.72942   2.73531   2.74513
 Alpha virt. eigenvalues --    2.74852   2.75774   2.76942   2.78057   2.78371
 Alpha virt. eigenvalues --    2.79002   2.80382   2.80903   2.81232   2.82080
 Alpha virt. eigenvalues --    2.84230   2.85342   2.85434   2.87294   2.87729
 Alpha virt. eigenvalues --    2.89200   2.90261   2.90310   2.91855   2.92522
 Alpha virt. eigenvalues --    2.93169   2.93389   2.95371   2.95861   2.97218
 Alpha virt. eigenvalues --    2.97925   2.98502   3.00600   3.02039   3.03702
 Alpha virt. eigenvalues --    3.06083   3.07532   3.08718   3.11299   3.13203
 Alpha virt. eigenvalues --    3.13864   3.18103   3.18403   3.19816   3.21202
 Alpha virt. eigenvalues --    3.21651   3.22681   3.23315   3.24299   3.26183
 Alpha virt. eigenvalues --    3.28280   3.28335   3.35026   3.37714   3.38434
 Alpha virt. eigenvalues --    3.41150   3.41628   3.43268   3.45039   3.50717
 Alpha virt. eigenvalues --    3.51636   3.52360   3.56080   3.58784   3.61811
 Alpha virt. eigenvalues --    3.63154   3.68426   3.71282   3.73338   3.79505
 Alpha virt. eigenvalues --    3.80824   3.83376   3.83992   3.87856   3.92890
 Alpha virt. eigenvalues --    3.99444   4.00553   4.03562   4.04869   4.05005
 Alpha virt. eigenvalues --    4.08484   4.10927   4.14251   4.15291   4.17512
 Alpha virt. eigenvalues --    4.18417   4.24222   4.32358   4.33870   4.41328
 Alpha virt. eigenvalues --    4.84366   4.84802   4.84977   5.07097   5.10521
 Alpha virt. eigenvalues --    5.11678   5.21457   5.23115   5.45325   5.49551
 Alpha virt. eigenvalues --    5.70551   5.72778   5.92530   9.81906   9.83820
 Alpha virt. eigenvalues --   23.53638  23.61413  23.65944  23.83301  23.85591
 Alpha virt. eigenvalues --   23.93062  23.93607  23.97416  23.97996  23.98241
 Alpha virt. eigenvalues --   23.99393  24.07408  24.08546  24.10946  24.11855
 Alpha virt. eigenvalues --   24.20124  24.20754  24.20913  25.87577  25.96403
 Alpha virt. eigenvalues --   26.17393  26.31677  26.72470  26.73956  35.68215
 Alpha virt. eigenvalues --   49.94071  49.97024  50.09355 215.81844 215.84158
          Condensed to atoms (all electrons):
               1          2          3          4          5          6
     1  C    9.260664   0.016512  -1.917451   0.049684  -0.730627  -0.015716
     2  C    0.016512   9.767440  -0.344224  -3.475468   0.791404  -0.916020
     3  C   -1.917451  -0.344224  13.901188  -1.758944  -4.654666   1.432476
     4  C    0.049684  -3.475468  -1.758944  20.290483  -1.979296  -3.343256
     5  C   -0.730627   0.791404  -4.654666  -1.979296  11.902991  -0.810459
     6  C   -0.015716  -0.916020   1.432476  -3.343256  -0.810459   9.949536
     7  C   -0.598047  -0.082799  -0.192269  -0.017699   0.132741  -0.814657
     8  N   -0.098045   0.376353  -0.222851  -2.176198   0.918648   0.433482
     9  C   -0.210488  -0.697613  -2.881285   1.139914   0.499386  -0.225174
    10  C    0.156585   0.820013   2.207903  -3.142421   0.153383   0.291810
    11  O   -0.005566  -0.022797  -0.017539   0.066302  -0.047563  -0.007444
    12  C    0.008563  -0.103476  -0.243399   0.249212   0.201896  -0.022772
[...]
   400. RY*(  13) C  18                  0.00007     1.41071   
   401. RY*(  14) C  18                  0.00005     2.93254   
   402. RY*(  15) C  18                  0.00004     2.10975   
   403. RY*(  16) C  18                  0.00001     2.80590   
   404. RY*(  17) C  18                  0.00001    20.96063   
   405. RY*(   1) C  19                  0.00784     1.02317   
   406. RY*(   2) C  19                  0.00613     0.83957   
   407. RY*(   3) C  19                  0.00270     1.04969   
   408. RY*(   4) C  19                  0.00083     1.53331   
   409. RY*(   5) C  19                  0.00078     0.93802   
   410. RY*(   6) C  19                  0.00061     2.16677   
   411. RY*(   7) C  19                  0.00034     1.57118   
   412. RY*(   8) C  19                  0.00024     0.94158   
   413. RY*(   9) C  19                  0.00014     1.30830   
   414. RY*(  10) C  19                  0.00012     3.29911   
   415. RY*(  11) C  19                  0.00009     1.83612   
   416. RY*(  12) C  19                  0.00006     1.87525   
   417. RY*(  13) C  19                  0.00005     1.05879   
   418. RY*(  14) C  19                  0.00003     1.26656   
   419. RY*(  15) C  19                  0.00002     2.26855   
   420. RY*(  16) C  19                  0.00000     2.71387   
   421. RY*(  17) C  19                  0.00000    21.69846   
   422. RY*(   1) C  20                  0.00616     1.02709   
   423. RY*(   2) C  20                  0.00292     1.03139   
   424. RY*(   3) C  20                  0.00104     0.91751   
   425. RY*(   4) C  20                  0.00090     0.63955   
   426. RY*(   5) C  20                  0.00056     1.42841   
   427. RY*(   6) C  20                  0.00030     0.70559   
   428. RY*(   7) C  20                  0.00026     1.22570   
   429. RY*(   8) C  20                  0.00019     2.13474   
   430. RY*(   9) C  20                  0.00010     3.29013   
   431. RY*(  10) C  20                  0.00007     2.05597   
   432. RY*(  11) C  20                  0.00003     2.79807   
   433. RY*(  12) C  20                  0.00004     1.45936   
   434. RY*(  13) C  20                  0.00001     1.27038   
   435. RY*(  14) C  20                  0.00000     1.80378   
   436. RY*(  15) C  20                  0.00000     2.34157   
   437. RY*(  16) C  20                  0.00000    20.69356   
   438. RY*(  17) C  20                  0.00000     2.53598   
   439. RY*(   1) C  21                  0.00588     1.12310   
   440. RY*(   2) C  21                  0.00223     1.27924   
   441. RY*(   3) C  21                  0.00069     0.99357   
   442. RY*(   4) C  21                  0.00058     1.17523   
   443. RY*(   5) C  21                  0.00043     0.82361   
   444. RY*(   6) C  21                  0.00031     0.83595   
   445. RY*(   7) C  21                  0.00012     2.01183   
   446. RY*(   8) C  21                  0.00008     2.96181   
   447. RY*(   9) C  21                  0.00006     2.80738   
   448. RY*(  10) C  21                  0.00003     2.22124   
   449. RY*(  11) C  21                  0.00001     0.73056   
   450. RY*(  12) C  21                  0.00000     2.61894   
   451. RY*(  13) C  21                  0.00000     1.80293   
   452. RY*(  14) C  21                  0.00000     3.00085   
   453. RY*(  15) C  21                  0.00001     1.70595   
   454. RY*(  16) C  21                  0.00001     1.77075   
   455. RY*(  17) C  21                  0.00000    19.35371   
   456. RY*(   1) C  22                  0.00585     1.10838   
   457. RY*(   2) C  22                  0.00224     1.27123   
   458. RY*(   3) C  22                  0.00086     0.52628   
   459. RY*(   4) C  22                  0.00055     1.62679   
   460. RY*(   5) C  22                  0.00038     1.08382   
   461. RY*(   6) C  22                  0.00025     1.00943   
   462. RY*(   7) C  22                  0.00011     2.24650   
   463. RY*(   8) C  22                  0.00007     2.43637   
   464. RY*(   9) C  22                  0.00007     2.98600   
   465. RY*(  10) C  22                  0.00004     0.67704   
   466. RY*(  11) C  22                  0.00003     2.82158   
   467. RY*(  12) C  22                  0.00000     3.78483   
   468. RY*(  13) C  22                  0.00001     2.54191   
   469. RY*(  14) C  22                  0.00001     0.76006   
   470. RY*(  15) C  22                  0.00001     2.61544   
   471. RY*(  16) C  22                  0.00000    18.05944   
   472. RY*(  17) C  22                  0.00001     1.76851   
   473. RY*(   1) C  23                  0.00573     1.19655   
   474. RY*(   2) C  23                  0.00245     1.11635   
   475. RY*(   3) C  23                  0.00083     0.72261   
   476. RY*(   4) C  23                  0.00070     1.56655   
   477. RY*(   5) C  23                  0.00054     0.88952   
   478. RY*(   6) C  23                  0.00026     1.17764   
   479. RY*(   7) C  23                  0.00019     1.34897   
   480. RY*(   8) C  23                  0.00014     2.65078   
   481. RY*(   9) C  23                  0.00011     2.43406   
   482. RY*(  10) C  23                  0.00009     0.78082   
   483. RY*(  11) C  23                  0.00007     1.16561   
   484. RY*(  12) C  23                  0.00004     2.74252   
   485. RY*(  13) C  23                  0.00003     2.33114   
   486. RY*(  14) C  23                  0.00003     1.65145   
   487. RY*(  15) C  23                  0.00000     2.76908   
   488. RY*(  16) C  23                  0.00001     2.68738   
   489. RY*(  17) C  23                  0.00000    21.11128   
   490. RY*(   1)Cl  24                  0.00335     0.65818   
   491. RY*(   2)Cl  24                  0.00213     0.63402   
   492. RY*(   3)Cl  24                  0.00096     0.57469   
   493. RY*(   4)Cl  24                  0.00037     0.82938   
   494. RY*(   5)Cl  24                  0.00022     0.72481   
   495. RY*(   6)Cl  24                  0.00017     0.64347   
   496. RY*(   7)Cl  24                  0.00011     0.42142   
   497. RY*(   8)Cl  24                  0.00007     1.47506   
   498. RY*(   9)Cl  24                  0.00005     1.32928   
   499. RY*(  10)Cl  24                  0.00001     3.50421   
   500. RY*(  11)Cl  24                  0.00002     1.11789   
   501. RY*(  12)Cl  24                  0.00002     0.92934   
   502. RY*(  13)Cl  24                  0.00002     0.94173   
   503. RY*(  14)Cl  24                  0.00000   207.75616   
   504. RY*(  15)Cl  24                  0.00000     2.87071   
   505. RY*(  16)Cl  24                  0.00000    24.74281   
   506. RY*(  17)Cl  24                  0.00000    17.47048   
   507. RY*(  18)Cl  24                  0.00001     0.89482   
   508. RY*(  19)Cl  24                  0.00001     3.22138   
   509. RY*(  20)Cl  24                  0.00000    24.62277   
   510. RY*(  21)Cl  24                  0.00000    24.71724   
   511. RY*(   1) H  25                  0.00144     0.84358   
   512. RY*(   2) H  25                  0.00027     1.70538   
   513. RY*(   3) H  25                  0.00018     1.82964   
   514. RY*(   4) H  25                  0.00014     1.63124   
   515. RY*(   5) H  25                  0.00011     2.23281   
   516. RY*(   6) H  25                  0.00010     1.60111   
   517. RY*(   1) H  26                  0.00223     0.55742   
   518. RY*(   2) H  26                  0.00038     1.74815   
   519. RY*(   3) H  26                  0.00028     1.34057   
   520. RY*(   4) H  26                  0.00024     1.92631   
   521. RY*(   5) H  26                  0.00014     2.56358   
   522. RY*(   6) H  26                  0.00010     1.91386   
   523. RY*(   1) H  27                  0.00085     0.78145   
   524. RY*(   2) H  27                  0.00021     2.12257   
   525. RY*(   3) H  27                  0.00020     1.69251   
   526. RY*(   4) H  27                  0.00014     1.63060   
   527. RY*(   5) H  27                  0.00005     0.65291   
   528. RY*(   6) H  27                  0.00004     2.40980   
   529. RY*(   1) H  28                  0.00135     0.49886   
   530. RY*(   2) H  28                  0.00032     1.94831   
   531. RY*(   3) H  28                  0.00023     1.91230   
   532. RY*(   4) H  28                  0.00011     1.78594   
   533. RY*(   5) H  28                  0.00005     1.38391   
   534. RY*(   6) H  28                  0.00005     1.88181   
   535. RY*(   1) H  29                  0.00087     0.86455   
   536. RY*(   2) H  29                  0.00023     1.77002   
   537. RY*(   3) H  29                  0.00017     1.95848   
   538. RY*(   4) H  29                  0.00012     1.86488   
   539. RY*(   5) H  29                  0.00006     0.45171   
   540. RY*(   6) H  29                  0.00004     2.43094   
   541. RY*(   1) H  30                  0.00080     0.78349   
   542. RY*(   2) H  30                  0.00020     2.21793   
   543. RY*(   3) H  30                  0.00020     1.60848   
   544. RY*(   4) H  30                  0.00013     1.71604   
   545. RY*(   5) H  30                  0.00006     0.49057   
   546. RY*(   6) H  30                  0.00004     2.45098   
   547. RY*(   1) H  31                  0.00092     0.64325   
   548. RY*(   2) H  31                  0.00016     1.95505   
   549. RY*(   3) H  31                  0.00012     1.69124   
   550. RY*(   4) H  31                  0.00010     1.20916   
   551. RY*(   5) H  31                  0.00005     1.13396   
   552. RY*(   6) H  31                  0.00002     2.47180   
   553. RY*(   1) H  32                  0.00099     0.63567   
   554. RY*(   2) H  32                  0.00019     1.68725   
   555. RY*(   3) H  32                  0.00014     1.78657   
   556. RY*(   4) H  32                  0.00013     0.51125   
   557. RY*(   5) H  32                  0.00006     2.05304   
   558. RY*(   6) H  32                  0.00005     2.53601   
   559. RY*(   1) H  33                  0.00091     0.63419   
   560. RY*(   2) H  33                  0.00016     1.91816   
   561. RY*(   3) H  33                  0.00012     1.75594   
   562. RY*(   4) H  33                  0.00009     1.11255   
   563. RY*(   5) H  33                  0.00006     1.31462   
   564. RY*(   6) H  33                  0.00002     2.37694   
   565. RY*(   1) H  34                  0.00150     0.78100   
   566. RY*(   2) H  34                  0.00069     1.63110   
   567. RY*(   3) H  34                  0.00041     1.57737   
   568. RY*(   4) H  34                  0.00020     2.00815   
   569. RY*(   5) H  34                  0.00013     1.26707   
   570. RY*(   6) H  34                  0.00005     2.44458   
   571. RY*(   1) H  35                  0.00174     1.63030   
   572. RY*(   2) H  35                  0.00132     1.82015   
   573. RY*(   3) H  35                  0.00069     1.67719   
   574. RY*(   4) H  35                  0.00027     1.22675   
   575. RY*(   5) H  35                  0.00017     0.42853   
   576. RY*(   6) H  35                  0.00001     2.53185   
   577. RY*(   1) H  36                  0.00089     0.73267   
   578. RY*(   2) H  36                  0.00026     0.95384   
   579. RY*(   3) H  36                  0.00020     1.75948   
   580. RY*(   4) H  36                  0.00018     1.59910   
   581. RY*(   5) H  36                  0.00013     1.77557   
   582. RY*(   6) H  36                  0.00003     2.44241   
   583. RY*(   1) H  37                  0.00074     0.66873   
   584. RY*(   2) H  37                  0.00021     2.28705   
   585. RY*(   3) H  37                  0.00019     1.58187   
   586. RY*(   4) H  37                  0.00011     1.96369   
   587. RY*(   5) H  37                  0.00003     2.02337   
   588. RY*(   6) H  37                  0.00002     0.64405   
   589. RY*(   1) H  38                  0.00079     0.72876   
   590. RY*(   2) H  38                  0.00021     2.25821   
   591. RY*(   3) H  38                  0.00019     1.59097   
   592. RY*(   4) H  38                  0.00011     1.98605   
   593. RY*(   5) H  38                  0.00006     0.22852   
   594. RY*(   6) H  38                  0.00003     2.44292   
   595. RY*(   1) H  39                  0.00112     1.43941   
   596. RY*(   2) H  39                  0.00023     1.51013   
   597. RY*(   3) H  39                  0.00016     1.61839   
   598. RY*(   4) H  39                  0.00011     2.07426   
   599. RY*(   5) H  39                  0.00008     1.13840   
   600. RY*(   6) H  39                  0.00004     1.68961   
   601. BD*(   1) C   1 - C   2          0.02368     0.56560   
   602. BD*(   2) C   1 - C   2          0.33818     0.02026  613(v),608(v),114(g),617(v)
                                                    182(v)
   603. BD*(   1) C   1 - C   6          0.02404     0.56206   
   604. BD*(   1) C   1 - C   7          0.01572     0.40607   
   605. BD*(   1) C   2 - C   3          0.01387     0.56171   
   606. BD*(   1) C   2 - H  27          0.01410     0.42306   
   607. BD*(   1) C   3 - C   4          0.02695     0.54604   
   608. BD*(   2) C   3 - C   4          0.39583     0.00297  613(v),602(v),131(g),623(r)
                                                    620(v),165(v),150(g),619(v)
                                                    149(g)
   609. BD*(   1) C   3 - H  28          0.01324     0.41708   
   610. BD*(   1) C   4 - C   5          0.02461     0.54540   
   611. BD*(   1) C   4 - N   8          0.03022     0.38117   
   612. BD*(   1) C   5 - C   6          0.01340     0.56554   
   613. BD*(   2) C   5 - C   6          0.32110     0.01227  602(v),608(v),165(g),182(g)
                                                    183(g),167(g)
   614. BD*(   1) C   5 - H  29          0.01274     0.41783   
   615. BD*(   1) C   6 - H  30          0.01389     0.42389   
   616. BD*(   1) C   7 - H  31          0.00469     0.39068   
   617. BD*(   1) C   7 - H  32          0.01019     0.38762   
   618. BD*(   1) C   7 - H  33          0.00610     0.38994   
   619. BD*(   1) N   8 - C   9          0.02713     0.46081   
   620. BD*(   1) N   8 - H  34          0.02236     0.36555   
   621. BD*(   1) C   9 - C  10          0.03563     0.35764   
   622. BD*(   1) C   9 - C  13          0.02696     0.58865   
   623. BD*(   2) C   9 - C  13          0.31107    -0.00078  630(v),301(g),625(v),626(v)
                                                    234(g),608(r),333(v),214(v)
   624. BD*(   1) C  10 - O  11          0.02881     0.24350   
   625. BD*(   1) C  10 - C  16          0.05052     0.32224   
   626. BD*(   1) C  10 - H  25          0.02721     0.37350   
   627. BD*(   1) O  11 - C  12          0.12446     0.30252  624(g),621(v),283(g),631(v)
                                                    625(v),622(v),291(g),289(g)
   628. BD*(   1) C  12 - C  13          0.07875     0.44021   
   629. BD*(   1) C  12 - O  14          0.01272     0.63442   
   630. BD*(   2) C  12 - O  14          0.28735     0.01153  623(v),284(g),317(g)
   631. BD*(   1) C  13 -Cl  15          0.02774     0.14624   
   632. BD*(   1) C  16 - O  17          0.02989     0.27183   
   633. BD*(   1) C  16 - C  18          0.03731     0.38276   
   634. BD*(   1) C  16 - H  26          0.02548     0.38377   
   635. BD*(   1) O  17 - H  35          0.01001     0.41843   
   636. BD*(   1) C  18 - C  19          0.03523     0.54026   
   637. BD*(   2) C  18 - C  19          0.41390     0.00160  642(v),647(v),632(v),390(g)
                                                    407(g),425(v),490(v)
   638. BD*(   1) C  18 - C  23          0.02435     0.54968   
   639. BD*(   1) C  19 - C  20          0.02509     0.54865   
   640. BD*(   1) C  19 -Cl  24          0.03454     0.12855   
   641. BD*(   1) C  20 - C  21          0.01723     0.56423   
   642. BD*(   2) C  20 - C  21          0.32471     0.01342  647(v),637(v),442(g),425(g)
                                                    426(g)
   643. BD*(   1) C  20 - H  36          0.01334     0.42442   
   644. BD*(   1) C  21 - C  22          0.01595     0.56575   
   645. BD*(   1) C  21 - H  37          0.01328     0.43085   
   646. BD*(   1) C  22 - C  23          0.01568     0.56785   
   647. BD*(   2) C  22 - C  23          0.32053     0.01676  642(v),637(v),458(g),475(g)
   648. BD*(   1) C  22 - H  38          0.01344     0.43292   
   649. BD*(   1) C  23 - H  39          0.01539     0.44888   
       -------------------------------
              Total Lewis  183.88549  ( 97.8114%)
        Valence non-Lewis    3.74859  (  1.9939%)
        Rydberg non-Lewis    0.36592  (  0.1946%)
       -------------------------------
            Total unit  1  188.00000  (100.0000%)
           Charge unit  1    0.00000
 Leave Link  607 at Sat Jul 06 00:10:38 2019, MaxMem=   209715200 cpu:        10.0
 (Enter C:\G09W\l9999.exe)
 1|1|UNPC-CCSC-02011910|FOpt|RB3LYP|6-311++G(d,p)|C18H15Cl2N1O3|EDUARDO
 .MELO|06-Jul-2019|0||#p opt b3lyp/6-311++g(d,p) pop=nbo geom=connectiv
 ity||9b.log||0,1|C,1.9267081029,-3.8370545618,-0.4630532314|C,1.285828
 5274,-3.1062645478,-1.4674949658|C,0.1172472084,-2.3918395147,-1.21479
 4671|C,-0.4226296022,-2.3685814945,0.0727703222|C,0.2014379611,-3.1012
 583842,1.0864549957|C,1.352313805,-3.8315992234,0.8135584466|C,3.20457
 48028,-4.5906822492,-0.7375090262|N,-1.6210647049,-1.6631799698,0.3691
 60836|C,-1.9781398821,-0.4178736856,-0.0291393902|C,-1.0290480538,0.63
 58048881,-0.5674400269|O,-1.8677354821,1.7788072582,-0.8044711048|C,-3
 .1786360127,1.5217245486,-0.4018933688|C,-3.2064926447,0.1442202024,0.
 0620191195|O,-4.0346389947,2.355527788,-0.478732611|Cl,-4.6337309884,-
 0.6220861588,0.6657281437|C,0.1013857926,1.0053309756,0.4275215426|O,-
 0.4409502502,1.6031519766,1.5974979541|C,1.2111811274,1.8501135937,-0.
 1855664617|C,2.5399879131,1.7188131514,0.2450908418|C,3.5639688715,2.5
 065229029,-0.2728962231|C,3.274008734,3.4615096896,-1.2422998834|C,1.9
 6445891,3.6208790507,-1.6858106482|C,0.9509254262,2.8237587086,-1.1611
 69944|Cl,2.9818383468,0.53982027,1.4806519916|H,-0.5920661161,0.341429
 5561,-1.5235161847|H,0.5402357927,0.0691702553,0.7702559611|H,1.691707
 3419,-3.1109547335,-2.4736962528|H,-0.3879865857,-1.8821113796,-2.0262
 247247|H,-0.2119674897,-3.0870482336,2.0889971381|H,1.8204512106,-4.39
 55998577,1.6136367968|H,3.3155215422,-4.8125808622,-1.8009546863|H,4.0
 774562096,-4.0046117479,-0.4303709133|H,3.2367911483,-5.5351483655,-0.
 188920474|H,-2.3245513171,-2.1656559529,0.8945849785|H,-0.8222323253,2
 .4556122155,1.3524811413|H,4.575785659,2.3697700223,0.0865719921|H,4.0
 712783478,4.0764029498,-1.6436898462|H,1.7276086984,4.3646554019,-2.43
 74748904|H,-0.0653210299,2.9637005173,-1.5067706728||Version=IA32W-G09
 RevD.01|State=1-A|HF=-1896.0842992|RMSD=3.625e-009|RMSF=5.972e-006|Dip
 ole=2.13417,-1.666459,-0.6482773|Quadrupole=-9.8151705,7.6351572,2.180
 0133,9.6712906,-5.4280132,-4.4681465|PG=C01 [X(C18H15Cl2N1O3)]||@


 SIC AS THE CAWSE OF EWERY THING IS, SIC WILBE THE EFFECT.
 -- PROVERBS AND REASONS OF THE YEAR 1585
           AS REPRINTED IN PAISLEY MAGAZINE 1828.
 Job cpu time:       0 days  9 hours 14 minutes 14.0 seconds.
 File lengths (MBytes):  RWF=    248 Int=      0 D2E=      0 Chk=     28 Scr=      1
 Normal termination of Gaussian 09 at Sat Jul 06 00:10:38 2019.
