 Entering Link 1 = C:\G09W\l1.exe PID=      1728.
  
 Copyright (c) 1988,1990,1992,1993,1995,1998,2003,2009,2013,
            Gaussian, Inc.  All Rights Reserved.
  
 This is part of the Gaussian(R) 09 program.  It is based on
 the Gaussian(R) 03 system (copyright 2003, Gaussian, Inc.),
 the Gaussian(R) 98 system (copyright 1998, Gaussian, Inc.),
 the Gaussian(R) 94 system (copyright 1995, Gaussian, Inc.),
 the Gaussian 92(TM) system (copyright 1992, Gaussian, Inc.),
 the Gaussian 90(TM) system (copyright 1990, Gaussian, Inc.),
 the Gaussian 88(TM) system (copyright 1988, Gaussian, Inc.),
 the Gaussian 86(TM) system (copyright 1986, Carnegie Mellon
 University), and the Gaussian 82(TM) system (copyright 1983,
 Carnegie Mellon University). Gaussian is a federally registered
 trademark of Gaussian, Inc.
  
 This software contains proprietary and confidential information,
 including trade secrets, belonging to Gaussian, Inc.
  
 This software is provided under written license and may be
 used, copied, transmitted, or stored only in accord with that
 written license.
  
 The following legend is applicable only to US Government
 contracts under FAR:
  
                    RESTRICTED RIGHTS LEGEND
  
 Use, reproduction and disclosure by the US Government is
 subject to restrictions as set forth in subparagraphs (a)
 and (c) of the Commercial Computer Software - Restricted
 Rights clause in FAR 52.227-19.
  
 Gaussian, Inc.
 340 Quinnipiac St., Bldg. 40, Wallingford CT 06492
  
  
 ---------------------------------------------------------------
 Warning -- This program may not be used in any manner that
 competes with the business of Gaussian, Inc. or will provide
 assistance to any competitor of Gaussian, Inc.  The licensee
 of this program is prohibited from giving any competitor of
 Gaussian, Inc. access to this program.  By using this program,
 the user acknowledges that Gaussian, Inc. is engaged in the
 business of creating and licensing software in the field of
 computational chemistry and represents and warrants to the
 licensee that it is not a competitor of Gaussian, Inc. and that
 it will not use this program in any manner prohibited above.
 ---------------------------------------------------------------
  

 Cite this work as:
 Gaussian 09, Revision D.01,
 M. J. Frisch, G. W. Trucks, H. B. Schlegel, G. E. Scuseria, 
 M. A. Robb, J. R. Cheeseman, G. Scalmani, V. Barone, B. Mennucci, 
 G. A. Petersson, H. Nakatsuji, M. Caricato, X. Li, H. P. Hratchian, 
 A. F. Izmaylov, J. Bloino, G. Zheng, J. L. Sonnenberg, M. Hada, 
 M. Ehara, K. Toyota, R. Fukuda, J. Hasegawa, M. Ishida, T. Nakajima, 
 Y. Honda, O. Kitao, H. Nakai, T. Vreven, J. A. Montgomery, Jr., 
 J. E. Peralta, F. Ogliaro, M. Bearpark, J. J. Heyd, E. Brothers, 
 K. N. Kudin, V. N. Staroverov, T. Keith, R. Kobayashi, J. Normand, 
 K. Raghavachari, A. Rendell, J. C. Burant, S. S. Iyengar, J. Tomasi, 
 M. Cossi, N. Rega, J. M. Millam, M. Klene, J. E. Knox, J. B. Cross, 
 V. Bakken, C. Adamo, J. Jaramillo, R. Gomperts, R. E. Stratmann, 
 O. Yazyev, A. J. Austin, R. Cammi, C. Pomelli, J. W. Ochterski, 
 R. L. Martin, K. Morokuma, V. G. Zakrzewski, G. A. Voth, 
 P. Salvador, J. J. Dannenberg, S. Dapprich, A. D. Daniels, 
 O. Farkas, J. B. Foresman, J. V. Ortiz, J. Cioslowski, 
 and D. J. Fox, Gaussian, Inc., Wallingford CT, 2013.
 
 ******************************************
 Gaussian 09:  IA32W-G09RevD.01 24-Apr-2013
                06-Jul-2019 
 ******************************************
 %nprocshared=4
 Will use up to    4 processors via shared memory.
 %mem=1600MB
 ----------------------------------------------------
 #p opt b3lyp/6-311++g(d,p) pop=nbo geom=connectivity
 ----------------------------------------------------
 1/14=-1,18=20,19=15,26=3,38=1,57=2/1,3;
 2/9=110,12=2,17=6,18=5,40=1/2;
 3/5=4,6=6,7=1111,11=2,16=1,25=1,30=1,71=1,74=-5/1,2,3;
 4//1;
 5/5=2,38=5/2;
 6/7=2,8=2,9=2,10=2,28=1,40=1/1,7;
 7//1,2,3,16;
 1/14=-1,18=20,19=15,26=3/3(2);
 2/9=110/2;
 99//99;
 2/9=110/2;
 3/5=4,6=6,7=1111,11=2,16=1,25=1,30=1,71=1,74=-5/1,2,3;
 4/5=5,16=3,69=1/1;
 5/5=2,38=5/2;
 7//1,2,3,16;
 1/14=-1,18=20,19=15,26=3/3(-5);
 2/9=110/2;
 6/7=2,8=2,9=2,10=2,19=2,28=1,40=1/1,7;
 99/9=1/99;
 Leave Link    1 at Sat Jul 06 11:45:23 2019, MaxMem=   209715200 cpu:         0.0
 (Enter C:\G09W\l101.exe)
 ------
 9f.log
 ------
 Symbolic Z-matrix:
 Charge =  0 Multiplicity = 1
 C                    -2.4332    0.37047  -1.08986 
 C                    -2.39615   0.99241   0.14958 
 C                    -3.03451   0.40138   1.23115 
 C                    -3.69978  -0.80152   1.07916 
 C                    -3.70863  -1.4215   -0.15749 
 C                    -3.07707  -0.84603  -1.24317 
 N                    -1.75651   2.24627   0.33016 
 C                    -0.50363   2.57099  -0.06388 
 C                    -0.00028   3.78791  -0.26493 
 C                     0.61531   1.56869  -0.27182 
 C                     1.41364   3.68915  -0.61459 
 O                     1.71647   2.37012  -0.64292 
 Cl                   -0.82827   5.28627  -0.12856 
 O                     2.20537   4.529    -0.85354 
 C                     0.95329   0.77321   0.99612 
 C                     1.95958  -0.34943   0.79651 
 O                     1.34659   1.64285   2.01774 
 Br                   -4.60391  -3.07823  -0.36599 
 C                     2.07251  -1.29369   1.85783 
 C                     2.94595  -2.32591   1.78639 
 C                     3.78152  -2.49456   0.64817 
 C                     3.68586  -1.56205  -0.40001 
 C                     2.75847  -0.48734  -0.29529 
 C                     4.70557  -3.56489   0.53804 
 C                     5.49182  -3.68972  -0.56363 
 C                     5.39888  -2.74996  -1.61715 
 C                     4.52096  -1.71554  -1.53681 
 H                     0.39226   0.89232  -1.08608 
 H                     0.03035   0.32434   1.34146 
 H                    -1.97668   0.8412   -1.94173 
 H                    -3.00176   0.88292   2.1917 
 H                    -4.19449  -1.25691   1.9156 
 H                    -3.10041  -1.32904  -2.20125 
 H                    -2.34628   3.01667   0.55616 
 H                     2.22447   1.94828   1.84551 
 H                     1.45199  -1.17195   2.72828 
 H                     3.01659  -3.03301   2.5946 
 H                     2.72209   0.22212  -1.1008 
 H                     4.77607  -4.2774    1.34157 
 H                     6.19097  -4.50354  -0.63986 
 H                     6.02901  -2.85893  -2.4819 
 H                     4.45074  -0.99777  -2.33563 
 
 NAtoms=     42 NQM=       42 NQMF=       0 NMMI=      0 NMMIF=      0
                NMic=       0 NMicF=      0.
                    Isotopes and Nuclear Properties:
 (Nuclear quadrupole moments (NQMom) in fm**2, nuclear magnetic moments (NMagM)
  in nuclear magnetons)

  Atom         1           2           3           4           5           6           7           8           9          10
 IAtWgt=          12          12          12          12          12          12          14          12          12          12
 AtmWgt=  12.0000000  12.0000000  12.0000000  12.0000000  12.0000000  12.0000000  14.0030740  12.0000000  12.0000000  12.0000000
 NucSpn=           0           0           0           0           0           0           2           0           0           0
 AtZEff=   0.0000000   0.0000000   0.0000000   0.0000000   0.0000000   0.0000000   0.0000000   0.0000000   0.0000000   0.0000000
 NQMom=    0.0000000   0.0000000   0.0000000   0.0000000   0.0000000   0.0000000   2.0440000   0.0000000   0.0000000   0.0000000
 NMagM=    0.0000000   0.0000000   0.0000000   0.0000000   0.0000000   0.0000000   0.4037610   0.0000000   0.0000000   0.0000000
 AtZNuc=   6.0000000   6.0000000   6.0000000   6.0000000   6.0000000   6.0000000   7.0000000   6.0000000   6.0000000   6.0000000

  Atom        11          12          13          14          15          16          17          18          19          20
 IAtWgt=          12          16          35          16          12          12          16          79          12          12
 AtmWgt=  12.0000000  15.9949146  34.9688527  15.9949146  12.0000000  12.0000000  15.9949146  78.9183361  12.0000000  12.0000000
 NucSpn=           0           0           3           0           0           0           0           3           0           0
 AtZEff=   0.0000000   0.0000000   0.0000000   0.0000000   0.0000000   0.0000000   0.0000000   0.0000000   0.0000000   0.0000000
 NQMom=    0.0000000   0.0000000  -8.1650000   0.0000000   0.0000000   0.0000000   0.0000000  31.3000000   0.0000000   0.0000000
 NMagM=    0.0000000   0.0000000   0.8218740   0.0000000   0.0000000   0.0000000   0.0000000   2.1063990   0.0000000   0.0000000
 AtZNuc=   6.0000000   8.0000000  17.0000000   8.0000000   6.0000000   6.0000000   8.0000000  35.0000000   6.0000000   6.0000000

  Atom        21          22          23          24          25          26          27          28          29          30
 IAtWgt=          12          12          12          12          12          12          12           1           1           1
 AtmWgt=  12.0000000  12.0000000  12.0000000  12.0000000  12.0000000  12.0000000  12.0000000   1.0078250   1.0078250   1.0078250
 NucSpn=           0           0           0           0           0           0           0           1           1           1
 AtZEff=   0.0000000   0.0000000   0.0000000   0.0000000   0.0000000   0.0000000   0.0000000   0.0000000   0.0000000   0.0000000
 NQMom=    0.0000000   0.0000000   0.0000000   0.0000000   0.0000000   0.0000000   0.0000000   0.0000000   0.0000000   0.0000000
 NMagM=    0.0000000   0.0000000   0.0000000   0.0000000   0.0000000   0.0000000   0.0000000   2.7928460   2.7928460   2.7928460
 AtZNuc=   6.0000000   6.0000000   6.0000000   6.0000000   6.0000000   6.0000000   6.0000000   1.0000000   1.0000000   1.0000000

  Atom        31          32          33          34          35          36          37          38          39          40
 IAtWgt=           1           1           1           1           1           1           1           1           1           1
 AtmWgt=   1.0078250   1.0078250   1.0078250   1.0078250   1.0078250   1.0078250   1.0078250   1.0078250   1.0078250   1.0078250
 NucSpn=           1           1           1           1           1           1           1           1           1           1
 AtZEff=   0.0000000   0.0000000   0.0000000   0.0000000   0.0000000   0.0000000   0.0000000   0.0000000   0.0000000   0.0000000
 NQMom=    0.0000000   0.0000000   0.0000000   0.0000000   0.0000000   0.0000000   0.0000000   0.0000000   0.0000000   0.0000000
 NMagM=    2.7928460   2.7928460   2.7928460   2.7928460   2.7928460   2.7928460   2.7928460   2.7928460   2.7928460   2.7928460
 AtZNuc=   1.0000000   1.0000000   1.0000000   1.0000000   1.0000000   1.0000000   1.0000000   1.0000000   1.0000000   1.0000000

  Atom        41          42
 IAtWgt=           1           1
 AtmWgt=   1.0078250   1.0078250
 NucSpn=           1           1
 AtZEff=   0.0000000   0.0000000
 NQMom=    0.0000000   0.0000000
 NMagM=    2.7928460   2.7928460
 AtZNuc=   1.0000000   1.0000000
 Leave Link  101 at Sat Jul 06 11:45:23 2019, MaxMem=   209715200 cpu:         0.0
 (Enter C:\G09W\l103.exe)

 GradGradGradGradGradGradGradGradGradGradGradGradGradGradGradGradGradGrad
 Berny optimization.
 Initialization pass.
                           ----------------------------
                           !    Initial Parameters    !
                           ! (Angstroms and Degrees)  !
 --------------------------                            --------------------------
 ! Name  Definition              Value          Derivative Info.                !
 --------------------------------------------------------------------------------
 ! R1    R(1,2)                  1.3872         estimate D2E/DX2                !
 ! R2    R(1,6)                  1.3849         estimate D2E/DX2                !
 ! R3    R(1,30)                 1.075          estimate D2E/DX2                !
 ! R4    R(2,3)                  1.388          estimate D2E/DX2                !
 ! R5    R(2,7)                  1.4191         estimate D2E/DX2                !
 ! R6    R(3,4)                  1.383          estimate D2E/DX2                !
 ! R7    R(3,31)                 1.075          estimate D2E/DX2                !
 ! R8    R(4,5)                  1.3834         estimate D2E/DX2                !
 ! R9    R(4,32)                 1.0732         estimate D2E/DX2                !
 ! R10   R(5,6)                  1.3816         estimate D2E/DX2                !
 ! R11   R(5,18)                 1.8947         estimate D2E/DX2                !
 ! R12   R(6,33)                 1.0732         estimate D2E/DX2                !
 ! R13   R(7,8)                  1.3529         estimate D2E/DX2                !
 ! R14   R(7,34)                 0.9962         estimate D2E/DX2                !
 ! R15   R(8,9)                  1.3322         estimate D2E/DX2                !
 ! R16   R(8,10)                 1.5165         estimate D2E/DX2                !
 ! R17   R(9,11)                 1.4599         estimate D2E/DX2                !
 ! R18   R(9,13)                 1.7173         estimate D2E/DX2                !
 ! R19   R(10,12)                1.4116         estimate D2E/DX2                !
 ! R20   R(10,15)                1.5345         estimate D2E/DX2                !
 ! R21   R(10,28)                1.0818         estimate D2E/DX2                !
 ! R22   R(11,12)                1.3536         estimate D2E/DX2                !
 ! R23   R(11,14)                1.1787         estimate D2E/DX2                !
 ! R24   R(15,16)                1.5208         estimate D2E/DX2                !
 ! R25   R(15,17)                1.3981         estimate D2E/DX2                !
 ! R26   R(15,29)                1.0829         estimate D2E/DX2                !
 ! R27   R(16,19)                1.4251         estimate D2E/DX2                !
 ! R28   R(16,23)                1.3599         estimate D2E/DX2                !
 ! R29   R(17,35)                0.9453         estimate D2E/DX2                !
 ! R30   R(19,20)                1.3541         estimate D2E/DX2                !
 ! R31   R(19,36)                1.0759         estimate D2E/DX2                !
 ! R32   R(20,21)                1.422          estimate D2E/DX2                !
 ! R33   R(20,37)                1.0762         estimate D2E/DX2                !
 ! R34   R(21,22)                1.4062         estimate D2E/DX2                !
 ! R35   R(21,24)                1.4183         estimate D2E/DX2                !
 ! R36   R(22,23)                1.4234         estimate D2E/DX2                !
 ! R37   R(22,27)                1.4189         estimate D2E/DX2                !
 ! R38   R(23,38)                1.074          estimate D2E/DX2                !
 ! R39   R(24,25)                1.3592         estimate D2E/DX2                !
 ! R40   R(24,39)                1.0762         estimate D2E/DX2                !
 ! R41   R(25,26)                1.4148         estimate D2E/DX2                !
 ! R42   R(25,40)                1.0756         estimate D2E/DX2                !
 ! R43   R(26,27)                1.3591         estimate D2E/DX2                !
 ! R44   R(26,41)                1.0755         estimate D2E/DX2                !
 ! R45   R(27,42)                1.0762         estimate D2E/DX2                !
 ! A1    A(2,1,6)              120.341          estimate D2E/DX2                !
 ! A2    A(2,1,30)             120.0224         estimate D2E/DX2                !
 ! A3    A(6,1,30)             119.6268         estimate D2E/DX2                !
 ! A4    A(1,2,3)              119.539          estimate D2E/DX2                !
 ! A5    A(1,2,7)              121.4571         estimate D2E/DX2                !
 ! A6    A(3,2,7)              118.97           estimate D2E/DX2                !
 ! A7    A(2,3,4)              120.3943         estimate D2E/DX2                !
 ! A8    A(2,3,31)             119.4403         estimate D2E/DX2                !
 ! A9    A(4,3,31)             120.1639         estimate D2E/DX2                !
 ! A10   A(3,4,5)              119.4151         estimate D2E/DX2                !
 ! A11   A(3,4,32)             120.3421         estimate D2E/DX2                !
 ! A12   A(5,4,32)             120.2383         estimate D2E/DX2                !
 ! A13   A(4,5,6)              120.8553         estimate D2E/DX2                !
 ! A14   A(4,5,18)             119.5564         estimate D2E/DX2                !
 ! A15   A(6,5,18)             119.588          estimate D2E/DX2                !
 ! A16   A(1,6,5)              119.4345         estimate D2E/DX2                !
 ! A17   A(1,6,33)             120.2834         estimate D2E/DX2                !
 ! A18   A(5,6,33)             120.2729         estimate D2E/DX2                !
 ! A19   A(2,7,8)              126.3275         estimate D2E/DX2                !
 ! A20   A(2,7,34)             116.4431         estimate D2E/DX2                !
 ! A21   A(8,7,34)             115.3847         estimate D2E/DX2                !
 ! A22   A(7,8,9)              127.8149         estimate D2E/DX2                !
 ! A23   A(7,8,10)             124.3725         estimate D2E/DX2                !
 ! A24   A(9,8,10)             107.7133         estimate D2E/DX2                !
 ! A25   A(8,9,11)             109.8956         estimate D2E/DX2                !
 ! A26   A(8,9,13)             127.0741         estimate D2E/DX2                !
 ! A27   A(11,9,13)            123.0253         estimate D2E/DX2                !
 ! A28   A(8,10,12)            103.6734         estimate D2E/DX2                !
 ! A29   A(8,10,15)            113.0684         estimate D2E/DX2                !
 ! A30   A(8,10,28)            111.3648         estimate D2E/DX2                !
 ! A31   A(12,10,15)           109.8605         estimate D2E/DX2                !
 ! A32   A(12,10,28)           108.5386         estimate D2E/DX2                !
 ! A33   A(15,10,28)           110.0744         estimate D2E/DX2                !
 ! A34   A(9,11,12)            106.7147         estimate D2E/DX2                !
 ! A35   A(9,11,14)            130.6116         estimate D2E/DX2                !
 ! A36   A(12,11,14)           122.6701         estimate D2E/DX2                !
 ! A37   A(10,12,11)           111.9141         estimate D2E/DX2                !
 ! A38   A(10,15,16)           114.8327         estimate D2E/DX2                !
 ! A39   A(10,15,17)           110.0778         estimate D2E/DX2                !
 ! A40   A(10,15,29)           106.8989         estimate D2E/DX2                !
 ! A41   A(16,15,17)           111.6504         estimate D2E/DX2                !
 ! A42   A(16,15,29)           107.4477         estimate D2E/DX2                !
 ! A43   A(17,15,29)           105.3408         estimate D2E/DX2                !
 ! A44   A(15,16,19)           116.3483         estimate D2E/DX2                !
 ! A45   A(15,16,23)           124.6783         estimate D2E/DX2                !
 ! A46   A(19,16,23)           118.9589         estimate D2E/DX2                !
 ! A47   A(15,17,35)           109.2128         estimate D2E/DX2                !
 ! A48   A(16,19,20)           121.1276         estimate D2E/DX2                !
 ! A49   A(16,19,36)           118.8073         estimate D2E/DX2                !
 ! A50   A(20,19,36)           120.0644         estimate D2E/DX2                !
 ! A51   A(19,20,21)           120.7745         estimate D2E/DX2                !
 ! A52   A(19,20,37)           120.2378         estimate D2E/DX2                !
 ! A53   A(21,20,37)           118.9876         estimate D2E/DX2                !
 ! A54   A(20,21,22)           118.5558         estimate D2E/DX2                !
 ! A55   A(20,21,24)           122.3077         estimate D2E/DX2                !
 ! A56   A(22,21,24)           119.1363         estimate D2E/DX2                !
 ! A57   A(21,22,23)           119.3525         estimate D2E/DX2                !
 ! A58   A(21,22,27)           119.0404         estimate D2E/DX2                !
 ! A59   A(23,22,27)           121.607          estimate D2E/DX2                !
 ! A60   A(16,23,22)           121.2253         estimate D2E/DX2                !
 ! A61   A(16,23,38)           121.0147         estimate D2E/DX2                !
 ! A62   A(22,23,38)           117.7519         estimate D2E/DX2                !
 ! A63   A(21,24,25)           120.6048         estimate D2E/DX2                !
 ! A64   A(21,24,39)           118.9677         estimate D2E/DX2                !
 ! A65   A(25,24,39)           120.4275         estimate D2E/DX2                !
 ! A66   A(24,25,26)           120.3013         estimate D2E/DX2                !
 ! A67   A(24,25,40)           120.1944         estimate D2E/DX2                !
 ! A68   A(26,25,40)           119.5042         estimate D2E/DX2                !
 ! A69   A(25,26,27)           120.2619         estimate D2E/DX2                !
 ! A70   A(25,26,41)           119.5333         estimate D2E/DX2                !
 ! A71   A(27,26,41)           120.2047         estimate D2E/DX2                !
 ! A72   A(22,27,26)           120.6549         estimate D2E/DX2                !
 ! A73   A(22,27,42)           118.9558         estimate D2E/DX2                !
 ! A74   A(26,27,42)           120.3892         estimate D2E/DX2                !
 ! D1    D(6,1,2,3)             -1.4016         estimate D2E/DX2                !
 ! D2    D(6,1,2,7)           -179.261          estimate D2E/DX2                !
 ! D3    D(30,1,2,3)           177.4507         estimate D2E/DX2                !
 ! D4    D(30,1,2,7)            -0.4087         estimate D2E/DX2                !
 ! D5    D(2,1,6,5)              1.4427         estimate D2E/DX2                !
 ! D6    D(2,1,6,33)          -179.6541         estimate D2E/DX2                !
 ! D7    D(30,1,6,5)          -177.4141         estimate D2E/DX2                !
 ! D8    D(30,1,6,33)            1.4891         estimate D2E/DX2                !
 ! D9    D(1,2,3,4)              0.2319         estimate D2E/DX2                !
 ! D10   D(1,2,3,31)           179.7793         estimate D2E/DX2                !
 ! D11   D(7,2,3,4)            178.1448         estimate D2E/DX2                !
 ! D12   D(7,2,3,31)            -2.3078         estimate D2E/DX2                !
 ! D13   D(1,2,7,8)            -50.5121         estimate D2E/DX2                !
 ! D14   D(1,2,7,34)           113.2257         estimate D2E/DX2                !
 ! D15   D(3,2,7,8)            131.6166         estimate D2E/DX2                !
 ! D16   D(3,2,7,34)           -64.6455         estimate D2E/DX2                !
 ! D17   D(2,3,4,5)              0.8784         estimate D2E/DX2                !
 ! D18   D(2,3,4,32)          -179.8956         estimate D2E/DX2                !
 ! D19   D(31,3,4,5)          -178.6657         estimate D2E/DX2                !
 ! D20   D(31,3,4,32)            0.5603         estimate D2E/DX2                !
 ! D21   D(3,4,5,6)             -0.8391         estimate D2E/DX2                !
 ! D22   D(3,4,5,18)           179.3831         estimate D2E/DX2                !
 ! D23   D(32,4,5,6)           179.9342         estimate D2E/DX2                !
 ! D24   D(32,4,5,18)            0.1563         estimate D2E/DX2                !
 ! D25   D(4,5,6,1)             -0.3166         estimate D2E/DX2                !
 ! D26   D(4,5,6,33)          -179.2199         estimate D2E/DX2                !
 ! D27   D(18,5,6,1)           179.4612         estimate D2E/DX2                !
 ! D28   D(18,5,6,33)            0.5579         estimate D2E/DX2                !
 ! D29   D(2,7,8,9)            159.206          estimate D2E/DX2                !
 ! D30   D(2,7,8,10)           -24.873          estimate D2E/DX2                !
 ! D31   D(34,7,8,9)            -4.6811         estimate D2E/DX2                !
 ! D32   D(34,7,8,10)          171.2399         estimate D2E/DX2                !
 ! D33   D(7,8,9,11)           176.9369         estimate D2E/DX2                !
 ! D34   D(7,8,9,13)            -2.2652         estimate D2E/DX2                !
 ! D35   D(10,8,9,11)            0.4705         estimate D2E/DX2                !
 ! D36   D(10,8,9,13)         -178.7316         estimate D2E/DX2                !
 ! D37   D(7,8,10,12)         -178.6932         estimate D2E/DX2                !
 ! D38   D(7,8,10,15)          -59.77           estimate D2E/DX2                !
 ! D39   D(7,8,10,28)           64.7854         estimate D2E/DX2                !
 ! D40   D(9,8,10,12)           -2.0751         estimate D2E/DX2                !
 ! D41   D(9,8,10,15)          116.8481         estimate D2E/DX2                !
 ! D42   D(9,8,10,28)         -118.5965         estimate D2E/DX2                !
 ! D43   D(8,9,11,12)            1.4039         estimate D2E/DX2                !
 ! D44   D(8,9,11,14)         -179.2818         estimate D2E/DX2                !
 ! D45   D(13,9,11,12)        -179.3553         estimate D2E/DX2                !
 ! D46   D(13,9,11,14)          -0.041          estimate D2E/DX2                !
 ! D47   D(8,10,12,11)           3.0557         estimate D2E/DX2                !
 ! D48   D(15,10,12,11)       -118.0513         estimate D2E/DX2                !
 ! D49   D(28,10,12,11)        121.5475         estimate D2E/DX2                !
 ! D50   D(8,10,15,16)         173.4632         estimate D2E/DX2                !
 ! D51   D(8,10,15,17)         -59.5251         estimate D2E/DX2                !
 ! D52   D(8,10,15,29)          54.3931         estimate D2E/DX2                !
 ! D53   D(12,10,15,16)        -71.2585         estimate D2E/DX2                !
 ! D54   D(12,10,15,17)         55.7532         estimate D2E/DX2                !
 ! D55   D(12,10,15,29)        169.6714         estimate D2E/DX2                !
 ! D56   D(28,10,15,16)         48.2082         estimate D2E/DX2                !
 ! D57   D(28,10,15,17)        175.2199         estimate D2E/DX2                !
 ! D58   D(28,10,15,29)        -70.8619         estimate D2E/DX2                !
 ! D59   D(9,11,12,10)          -2.8549         estimate D2E/DX2                !
 ! D60   D(14,11,12,10)        177.7635         estimate D2E/DX2                !
 ! D61   D(10,15,16,19)       -166.2475         estimate D2E/DX2                !
 ! D62   D(10,15,16,23)         15.1516         estimate D2E/DX2                !
 ! D63   D(17,15,16,19)         67.5477         estimate D2E/DX2                !
 ! D64   D(17,15,16,23)       -111.0532         estimate D2E/DX2                !
 ! D65   D(29,15,16,19)        -47.4844         estimate D2E/DX2                !
 ! D66   D(29,15,16,23)        133.9147         estimate D2E/DX2                !
 ! D67   D(10,15,17,35)        -75.206          estimate D2E/DX2                !
 ! D68   D(16,15,17,35)         53.5622         estimate D2E/DX2                !
 ! D69   D(29,15,17,35)        169.8837         estimate D2E/DX2                !
 ! D70   D(15,16,19,20)       -179.47           estimate D2E/DX2                !
 ! D71   D(15,16,19,36)          0.2121         estimate D2E/DX2                !
 ! D72   D(23,16,19,20)         -0.785          estimate D2E/DX2                !
 ! D73   D(23,16,19,36)        178.8971         estimate D2E/DX2                !
 ! D74   D(15,16,23,22)        179.3795         estimate D2E/DX2                !
 ! D75   D(15,16,23,38)          0.4422         estimate D2E/DX2                !
 ! D76   D(19,16,23,22)          0.8125         estimate D2E/DX2                !
 ! D77   D(19,16,23,38)       -178.1248         estimate D2E/DX2                !
 ! D78   D(16,19,20,21)          0.2262         estimate D2E/DX2                !
 ! D79   D(16,19,20,37)       -179.7512         estimate D2E/DX2                !
 ! D80   D(36,19,20,21)       -179.4519         estimate D2E/DX2                !
 ! D81   D(36,19,20,37)          0.5707         estimate D2E/DX2                !
 ! D82   D(19,20,21,22)          0.2951         estimate D2E/DX2                !
 ! D83   D(19,20,21,24)       -179.8716         estimate D2E/DX2                !
 ! D84   D(37,20,21,22)       -179.7272         estimate D2E/DX2                !
 ! D85   D(37,20,21,24)          0.1061         estimate D2E/DX2                !
 ! D86   D(20,21,22,23)         -0.2652         estimate D2E/DX2                !
 ! D87   D(20,21,22,27)        179.5946         estimate D2E/DX2                !
 ! D88   D(24,21,22,23)        179.8961         estimate D2E/DX2                !
 ! D89   D(24,21,22,27)         -0.244          estimate D2E/DX2                !
 ! D90   D(20,21,24,25)       -179.7163         estimate D2E/DX2                !
 ! D91   D(20,21,24,39)          0.2086         estimate D2E/DX2                !
 ! D92   D(22,21,24,25)          0.1161         estimate D2E/DX2                !
 ! D93   D(22,21,24,39)       -179.9591         estimate D2E/DX2                !
 ! D94   D(21,22,23,16)         -0.2985         estimate D2E/DX2                !
 ! D95   D(21,22,23,38)        178.6723         estimate D2E/DX2                !
 ! D96   D(27,22,23,16)        179.8454         estimate D2E/DX2                !
 ! D97   D(27,22,23,38)         -1.1838         estimate D2E/DX2                !
 ! D98   D(21,22,27,26)          0.2084         estimate D2E/DX2                !
 ! D99   D(21,22,27,42)       -179.6417         estimate D2E/DX2                !
 ! D100  D(23,22,27,26)       -179.935          estimate D2E/DX2                !
 ! D101  D(23,22,27,42)          0.2149         estimate D2E/DX2                !
 ! D102  D(21,24,25,26)          0.0541         estimate D2E/DX2                !
 ! D103  D(21,24,25,40)        179.9467         estimate D2E/DX2                !
 ! D104  D(39,24,25,26)       -179.8696         estimate D2E/DX2                !
 ! D105  D(39,24,25,40)          0.0229         estimate D2E/DX2                !
 ! D106  D(24,25,26,27)         -0.0937         estimate D2E/DX2                !
 ! D107  D(24,25,26,41)        179.819          estimate D2E/DX2                !
 ! D108  D(40,25,26,27)       -179.987          estimate D2E/DX2                !
 ! D109  D(40,25,26,41)         -0.0744         estimate D2E/DX2                !
 ! D110  D(25,26,27,22)         -0.0395         estimate D2E/DX2                !
 ! D111  D(25,26,27,42)        179.8084         estimate D2E/DX2                !
 ! D112  D(41,26,27,22)       -179.9516         estimate D2E/DX2                !
 ! D113  D(41,26,27,42)         -0.1037         estimate D2E/DX2                !
 --------------------------------------------------------------------------------
 Trust Radius=3.00D-01 FncErr=1.00D-07 GrdErr=1.00D-06
 Number of steps in this run=    242 maximum allowed number of steps=    252.
 GradGradGradGradGradGradGradGradGradGradGradGradGradGradGradGradGradGrad

 Leave Link  103 at Sat Jul 06 11:45:23 2019, MaxMem=   209715200 cpu:         0.0
 (Enter C:\G09W\l202.exe)
                          Input orientation:                          
 ---------------------------------------------------------------------
 Center     Atomic      Atomic             Coordinates (Angstroms)
 Number     Number       Type             X           Y           Z
 ---------------------------------------------------------------------
      1          6           0       -2.433201    0.370466   -1.089858
      2          6           0       -2.396145    0.992407    0.149576
      3          6           0       -3.034510    0.401379    1.231154
      4          6           0       -3.699778   -0.801515    1.079156
      5          6           0       -3.708628   -1.421502   -0.157491
      6          6           0       -3.077070   -0.846028   -1.243165
      7          7           0       -1.756508    2.246265    0.330162
      8          6           0       -0.503634    2.570991   -0.063877
      9          6           0       -0.000275    3.787913   -0.264929
     10          6           0        0.615312    1.568692   -0.271819
     11          6           0        1.413640    3.689153   -0.614588
     12          8           0        1.716470    2.370116   -0.642915
     13         17           0       -0.828268    5.286273   -0.128556
     14          8           0        2.205369    4.528999   -0.853539
     15          6           0        0.953291    0.773211    0.996115
     16          6           0        1.959576   -0.349426    0.796510
     17          8           0        1.346587    1.642851    2.017741
     18         35           0       -4.603909   -3.078229   -0.365989
     19          6           0        2.072505   -1.293689    1.857828
     20          6           0        2.945953   -2.325913    1.786389
     21          6           0        3.781522   -2.494555    0.648167
     22          6           0        3.685859   -1.562047   -0.400007
     23          6           0        2.758468   -0.487340   -0.295286
     24          6           0        4.705567   -3.564890    0.538043
     25          6           0        5.491816   -3.689718   -0.563627
     26          6           0        5.398880   -2.749964   -1.617148
     27          6           0        4.520956   -1.715541   -1.536810
     28          1           0        0.392263    0.892324   -1.086077
     29          1           0        0.030346    0.324343    1.341464
     30          1           0       -1.976676    0.841198   -1.941732
     31          1           0       -3.001765    0.882918    2.191703
     32          1           0       -4.194486   -1.256913    1.915602
     33          1           0       -3.100412   -1.329044   -2.201247
     34          1           0       -2.346281    3.016671    0.556160
     35          1           0        2.224468    1.948281    1.845508
     36          1           0        1.451990   -1.171951    2.728279
     37          1           0        3.016592   -3.033015    2.594598
     38          1           0        2.722088    0.222119   -1.100801
     39          1           0        4.776067   -4.277396    1.341566
     40          1           0        6.190966   -4.503540   -0.639861
     41          1           0        6.029014   -2.858934   -2.481899
     42          1           0        4.450742   -0.997770   -2.335631
 ---------------------------------------------------------------------
                    Distance matrix (angstroms):
                    1          2          3          4          5
     1  C    0.000000
     2  C    1.387220   0.000000
     3  C    2.397838   1.388033   0.000000
     4  C    2.771710   2.404524   1.382982   0.000000
     5  C    2.388969   2.764753   2.388653   1.383386   0.000000
     6  C    1.384893   2.404835   2.771298   2.404771   1.381566
     7  N    2.448059   1.419122   2.418404   3.691376   4.183431
     8  C    3.101318   2.473679   3.576263   4.784941   5.120620
     9  C    4.275346   3.704978   4.786800   6.046134   6.395423
    10  C    3.376146   3.094923   4.116157   5.105195   5.258402
    11  C    5.102720   4.729783   5.831146   7.012982   7.250197
    12  O    4.627972   4.409050   5.473561   6.508496   6.636542
    13  Cl   5.259759   4.579616   5.529783   6.838516   7.300107
    14  O    6.234226   5.889623   6.988528   8.186602   8.418332
    15  C    3.997726   3.461704   4.011989   4.913014   5.280252
    16  C    4.834575   4.603406   5.068877   5.684414   5.847051
    17  O    5.055980   4.233339   4.621037   5.685215   6.298975
    18  Br   4.138775   4.659411   4.137820   2.844174   1.894662
    19  C    5.635570   5.302188   5.417340   5.845324   6.123671
    20  C    6.669224   6.498339   6.596389   6.854904   6.991429
    21  C    7.060585   7.111334   7.428634   7.682577   7.609394
    22  C    6.453944   6.619520   7.188817   7.570599   7.399798
    23  C    5.321711   5.381226   6.056272   6.610351   6.535670
    24  C    8.312587   8.447140   8.724705   8.864472   8.710715
    25  C    8.920085   9.200591   9.625827   9.773733   9.484615
    26  C    8.447284   8.825478   9.442767   9.687729   9.318912
    27  C    7.274029   7.617294   8.320339   8.675205   8.349553
    28  H    2.873255   3.051569   4.165736   4.929718   4.799309
    29  H    3.461577   2.784738   3.067808   3.905149   4.390304
    30  H    1.075032   2.138314   3.373375   3.846213   3.361991
    31  H    3.369646   2.132849   1.074991   2.135954   3.365816
    32  H    3.844903   3.378212   2.136339   1.073203   2.135618
    33  H    2.137449   3.378091   3.844487   3.376177   2.134342
    34  H    3.117584   2.065295   2.787298   4.084608   4.697091
    35  H    5.727107   5.013975   5.516084   6.576121   7.111193
    36  H    5.661442   5.112954   4.984519   5.421950   5.917932
    37  H    7.406696   7.174948   7.090125   7.237802   7.443088
    38  H    5.157435   5.324762   6.213579   6.858601   6.704135
    39  H    8.915604   8.979548   9.105396   9.164636   9.077078
    40  H    9.916385  10.225807  10.614534  10.699852  10.379480
    41  H    9.163836   9.630202  10.322978  10.562361  10.113889
    42  H    7.128302   7.550955   8.408839   8.839132   8.455718
                    6          7          8          9         10
     6  C    0.000000
     7  N    3.712347   0.000000
     8  C    4.437264   1.352925   0.000000
     9  C    5.647745   2.411466   1.332175   0.000000
    10  C    4.517529   2.539098   1.516537   2.303028   0.000000
    11  C    6.413225   3.608922   2.286812   1.459853   2.291544
    12  O    5.803612   3.608849   2.303149   2.258370   1.411574
    13  Cl   6.626053   3.211495   2.735384   1.717339   3.990596
    14  O    7.546316   4.723187   3.434539   2.400112   3.410293
    15  C    4.886729   3.155375   2.545236   3.404108   1.534496
    16  C    5.456619   4.556794   3.916185   4.699494   2.574403
    17  O    6.032973   3.583466   2.935625   3.409679   2.404651
    18  Br   2.843131   6.078039   6.986932   8.267259   6.988777
    19  C    6.027826   5.433818   5.026449   5.884318   3.853834
    20  C    6.902540   6.718523   6.269195   7.089925   4.983579
    21  C    7.303086   7.297005   6.673030   7.389529   5.232708
    22  C    6.852796   6.682495   5.894645   6.498300   4.387051
    23  C    5.922891   5.314959   4.477527   5.088160   2.970006
    24  C    8.434118   8.693167   8.071376   8.766609   6.613602
    25  C    9.053958   9.411321   8.682836   9.282632   7.177487
    26  C    8.695204   8.941694   8.097215   8.586222   6.583557
    27  C    7.653253   7.654283   6.766860   7.235138   5.257418
    28  H    3.883660   2.907938   2.159965   3.035260   1.081777
    29  H    4.207863   2.812359   2.703247   3.818082   2.119734
    30  H    2.132040   2.680334   2.947605   3.924405   3.168005
    31  H    3.846199   2.621968   3.765354   4.845924   4.429726
    32  H    3.375686   4.552978   5.673938   6.913493   5.991912
    33  H    1.073206   4.582242   5.149940   6.288356   5.091775
    34  H    4.323432   0.996209   1.994599   2.602450   3.399004
    35  H    6.741986   4.270040   3.387633   3.575985   2.686363
    36  H    6.032493   5.265893   5.062629   5.972321   4.148704
    37  H    7.526224   7.468665   7.131926   7.987706   5.929435
    38  H    5.898427   5.118852   4.122826   4.563423   2.634193
    39  H    8.951362   9.287391   8.760760   9.510178   7.354702
    40  H    9.981877  10.472018   9.756968  10.354720   8.251992
    41  H    9.407817   9.725487   8.832124   9.243801   7.334609
    42  H    7.608184   7.494009   6.514811   6.855809   5.055351
                   11         12         13         14         15
    11  C    0.000000
    12  O    1.353650   0.000000
    13  Cl   2.795205   3.904386   0.000000
    14  O    1.178675   2.223547   3.209676   0.000000
    15  C    3.362886   2.412254   4.980619   4.369767   0.000000
    16  C    4.312698   3.086576   6.355228   5.155784   1.520778
    17  O    3.334817   2.782951   4.755114   4.160722   1.398097
    18  Br   9.059258   8.349152   9.180236  10.221247   6.897202
    19  C    5.601398   4.450162   7.460302   6.424396   2.503451
    20  C    6.655351   5.428244   8.709600   7.382920   3.768263
    21  C    6.740895   5.440253   9.077155   7.353210   4.335695
    22  C    5.725742   4.404475   8.206736   6.284774   3.856101
    23  C    4.399274   3.061317   6.799050   5.077521   2.552522
    24  C    8.049005   6.749345  10.459960   8.584785   5.754001
    25  C    8.431006   7.140106  10.986408   8.856189   6.553529
    26  C    7.638684   6.381574  10.274940   7.985294   6.245412
    27  C    6.302113   5.035552   8.923160   6.695004   5.033670
    28  H    3.014592   2.033171   4.659756   4.070237   2.159737
    29  H    4.130568   3.311489   5.245848   5.218036   1.082855
    30  H    4.622380   4.202838   4.936106   5.680981   4.149732
    31  H    5.936836   5.701628   5.431135   7.048521   4.133272
    32  H    7.894081   7.391938   7.636969   9.061074   5.609498
    33  H    6.933719   6.270130   7.295280   8.017749   5.574505
    34  H    3.994983   4.285062   2.815012   4.999190   4.014206
    35  H    3.120921   2.574540   4.935415   3.734344   1.928250
    36  H    5.899709   4.897054   7.420899   6.774794   2.651933
    37  H    7.619440   6.431612   9.560809   8.350556   4.615161
    38  H    3.737481   2.415537   6.260666   4.344808   2.798107
    39  H    8.865571   7.582131  11.181842   9.432898   6.343625
    40  H    9.483865   8.201724  12.057011   9.875090   7.612737
    41  H    8.225933   7.023024  10.904354   8.476637   7.145070
    42  H    5.844076   4.656628   8.498725   6.146826   5.144810
                   16         17         18         19         20
    16  C    0.000000
    17  O    2.415849   0.000000
    18  Br   7.202576   7.961103   0.000000
    19  C    1.425055   3.029158   7.259783   0.000000
    20  C    2.420599   4.285158   7.886642   1.354068   0.000000
    21  C    2.818345   4.992271   8.466678   2.413731   1.422028
    22  C    2.425316   4.646404   8.427349   2.787964   2.431312
    23  C    1.359878   3.446914   7.805274   2.399301   2.783680
    24  C    4.236329   6.371249   9.365920   3.719301   2.487905
    25  C    5.048192   7.230676  10.116158   4.826602   3.723434
    26  C    4.839126   6.995021  10.086077   5.026029   4.216721
    27  C    3.724422   5.830116   9.300048   4.206714   3.727847
    28  H    2.746370   3.332823   6.422270   4.033416   5.012928
    29  H    2.114916   1.981995   5.997434   2.656139   3.965171
    30  H    4.940611   5.231076   4.974659   5.948972   6.939867
    31  H    5.299070   4.417683   4.979894   5.531483   6.770246
    32  H    6.320473   6.254802   2.947961   6.267365   7.221172
    33  H    5.962355   6.812329   2.947596   6.575440   7.311191
    34  H    5.470720   4.202484   6.564682   6.308662   7.620001
    35  H    2.539689   0.945318   8.762605   3.245553   4.335063
    36  H    2.160075   2.905010   7.062740   1.075892   2.109671
    37  H    3.398831   4.998540   8.175522   2.111726   1.076190
    38  H    2.123176   3.692667   8.068611   3.387199   3.857259
    39  H    4.864016   6.875163   9.609251   4.059345   2.712097
    40  H    6.101187   8.264925  10.892008   5.788205   4.599876
    41  H    5.797061   7.901769  10.843626   6.077597   5.292226
    42  H    4.054203   5.963263   9.497079   4.829977   4.584692
                   21         22         23         24         25
    21  C    0.000000
    22  C    1.406197   0.000000
    23  C    2.442469   1.423382   0.000000
    24  C    1.418310   2.435390   3.735900   0.000000
    25  C    2.412875   2.795574   4.218818   1.359208   0.000000
    26  C    2.795127   2.413922   3.720022   2.406166   1.414808
    27  C    2.434697   1.418897   2.481174   2.785532   2.405624
    28  H    5.095648   4.164421   2.850921   6.411639   6.875573
    29  H    4.743223   4.466986   3.283356   6.134273   7.040576
    30  H    7.140845   6.341672   5.186269   8.379455   8.843458
    31  H    7.733228   7.577541   6.422072   9.050997  10.032037
    32  H    8.170364   8.219184   7.336473   9.297062  10.290265
    33  H    7.539137   7.025114   6.218330   8.569482   9.059854
    34  H    8.242090   7.633192   6.249921   9.646027  10.376191
    35  H    4.857657   4.415926   3.286397   6.185497   6.947412
    36  H    3.391588   3.863744   3.364153   4.594459   5.787572
    37  H    2.159549   3.402841   3.859860   2.713843   4.066003
    38  H    3.400236   2.145510   1.074016   4.578366   4.823113
    39  H    2.156025   3.405106   4.595053   1.076236   2.118354
    40  H    3.391232   3.871107   5.294397   2.115403   1.075606
    41  H    3.870569   3.392133   4.593714   3.371933   2.158368
    42  H    3.404596   2.156408   2.699507   3.861741   3.386800
                   26         27         28         29         30
    26  C    0.000000
    27  C    1.359130   0.000000
    28  H    6.214058   4.904103   0.000000
    29  H    6.857544   5.710619   2.519234   0.000000
    30  H    8.209788   6.994290   2.519252   3.882609   0.000000
    31  H    9.913426   8.788921   4.718406   3.198220   4.258853
    32  H   10.331611   9.385543   5.887917   4.547440   4.919327
    33  H    8.637022   7.660033   4.286824   5.008606   2.457658
    34  H    9.897720   8.598447   3.835286   3.676097   3.332980
    35  H    6.643823   5.489765   3.614721   2.775861   5.763543
    36  H    6.078717   5.282521   4.464702   2.486609   6.133312
    37  H    4.847083   4.589922   5.986882   4.664747   7.779495
    38  H    4.033002   2.679656   2.424351   3.636012   4.813399
    39  H    3.387467   3.861765   7.199805   6.610436   9.087331
    40  H    2.158129   3.371408   7.933436   8.073868   9.847409
    41  H    1.075517   2.115368   6.913264   7.793290   8.835940
    42  H    2.117869   1.076216   4.648128   5.899908   6.696914
                   31         32         33         34         35
    31  H    0.000000
    32  H    2.465298   0.000000
    33  H    4.919402   4.260358   0.000000
    34  H    2.767230   4.850512   5.201658   0.000000
    35  H    5.344938   7.175037   7.447915   4.867815   0.000000
    36  H    4.934200   5.705292   6.711875   6.057187   3.333445
    37  H    7.191486   7.457561   7.957473   8.337526   5.099206
    38  H    6.636244   7.689292   6.125242   6.020250   3.450797
    39  H    9.372633   9.482808   9.125964  10.224877   6.747123
    40  H   11.024427  11.177146   9.942085  11.439783   7.970957
    41  H   10.835081  11.243862   9.260980  10.672305   7.504021
    42  H    8.920404   9.637432   7.559612   8.407004   5.578300
                   36         37         38         39         40
    36  H    0.000000
    37  H    2.435038   0.000000
    38  H    4.268306   4.933417   0.000000
    39  H    4.755654   2.492855   5.516305   0.000000
    40  H    6.700876   4.764538   5.880258   2.445227   0.000000
    41  H    7.137297   5.905575   4.726106   4.266239   2.474684
    42  H    5.887787   5.523239   2.449730   4.937971   4.265494
                   41         42
    41  H    0.000000
    42  H    2.444641   0.000000
 Stoichiometry    C21H15BrClNO3
 Framework group  C1[X(C21H15BrClNO3)]
 Deg. of freedom   120
 Full point group                 C1      NOp   1
 Largest Abelian subgroup         C1      NOp   1
 Largest concise Abelian subgroup C1      NOp   1
                         Standard orientation:                         
 ---------------------------------------------------------------------
 Center     Atomic      Atomic             Coordinates (Angstroms)
 Number     Number       Type             X           Y           Z
 ---------------------------------------------------------------------
      1          6           0       -2.433201    0.370466   -1.089858
      2          6           0       -2.396145    0.992407    0.149576
      3          6           0       -3.034510    0.401379    1.231154
      4          6           0       -3.699778   -0.801515    1.079156
      5          6           0       -3.708628   -1.421502   -0.157491
      6          6           0       -3.077070   -0.846028   -1.243165
      7          7           0       -1.756508    2.246265    0.330162
      8          6           0       -0.503634    2.570991   -0.063877
      9          6           0       -0.000275    3.787913   -0.264929
     10          6           0        0.615312    1.568692   -0.271819
     11          6           0        1.413640    3.689153   -0.614588
     12          8           0        1.716470    2.370116   -0.642915
     13         17           0       -0.828268    5.286273   -0.128556
     14          8           0        2.205369    4.528999   -0.853539
     15          6           0        0.953291    0.773211    0.996115
     16          6           0        1.959576   -0.349426    0.796510
     17          8           0        1.346587    1.642851    2.017741
     18         35           0       -4.603909   -3.078229   -0.365989
     19          6           0        2.072505   -1.293689    1.857828
     20          6           0        2.945953   -2.325913    1.786389
     21          6           0        3.781522   -2.494555    0.648167
     22          6           0        3.685859   -1.562047   -0.400007
     23          6           0        2.758468   -0.487340   -0.295286
     24          6           0        4.705567   -3.564890    0.538043
     25          6           0        5.491816   -3.689718   -0.563627
     26          6           0        5.398880   -2.749964   -1.617148
     27          6           0        4.520956   -1.715541   -1.536810
     28          1           0        0.392263    0.892324   -1.086077
     29          1           0        0.030346    0.324343    1.341464
     30          1           0       -1.976676    0.841198   -1.941732
     31          1           0       -3.001765    0.882918    2.191703
     32          1           0       -4.194486   -1.256913    1.915602
     33          1           0       -3.100412   -1.329044   -2.201247
     34          1           0       -2.346281    3.016671    0.556160
     35          1           0        2.224468    1.948281    1.845508
     36          1           0        1.451990   -1.171951    2.728279
     37          1           0        3.016592   -3.033015    2.594598
     38          1           0        2.722088    0.222119   -1.100801
     39          1           0        4.776067   -4.277396    1.341566
     40          1           0        6.190966   -4.503540   -0.639861
     41          1           0        6.029014   -2.858934   -2.481899
     42          1           0        4.450742   -0.997770   -2.335631
 ---------------------------------------------------------------------
 Rotational constants (GHZ):      0.1316124      0.0993268      0.0621053
 Leave Link  202 at Sat Jul 06 11:45:23 2019, MaxMem=   209715200 cpu:         0.0
 (Enter C:\G09W\l301.exe)
 Standard basis: 6-311++G(d,p) (5D, 7F)
 Ernie: Thresh=  0.10000D-02 Tol=  0.10000D-05 Strict=F.
 There are   762 symmetry adapted cartesian basis functions of A   symmetry.
 There are   733 symmetry adapted basis functions of A   symmetry.
   733 basis functions,  1182 primitive gaussians,   762 cartesian basis functions
   112 alpha electrons      112 beta electrons
       nuclear repulsion energy      2890.9772184588 Hartrees.
 IExCor=  402 DFT=T Ex+Corr=B3LYP ExCW=0 ScaHFX=  0.200000
 ScaDFX=  0.800000  0.720000  1.000000  0.810000 ScalE2=  1.000000  1.000000
 IRadAn=      0 IRanWt=     -1 IRanGd=            0 ICorTp=0 IEmpDi=  4
 NAtoms=   42 NActive=   42 NUniq=   42 SFac= 1.00D+00 NAtFMM=   60 NAOKFM=F Big=F
 Integral buffers will be    262144 words long.
 Raffenetti 2 integral format.
 Two-electron integral symmetry is turned on.
 Leave Link  301 at Sat Jul 06 11:45:23 2019, MaxMem=   209715200 cpu:         0.0
 (Enter C:\G09W\l302.exe)
 NPDir=0 NMtPBC=     1 NCelOv=     1 NCel=       1 NClECP=     1 NCelD=      1
         NCelK=      1 NCelE2=     1 NClLst=     1 CellRange=     0.0.
 One-electron integrals computed using PRISM.
 NBasis=   733 RedAO= T EigKep=  1.03D-06  NBF=   733
 NBsUse=   726 1.00D-06 EigRej=  6.91D-07 NBFU=   726
 Precomputing XC quadrature grid using
 IXCGrd= 4 IRadAn=           0 IRanWt=          -1 IRanGd=           0 AccXCQ= 0.00D+00.
 Generated NRdTot=       0 NPtTot=           0 NUsed=           0 NTot=          16
 NSgBfM=   726   733   733   733   733 MxSgAt=    42 MxSgA2=    42.
 Leave Link  302 at Sat Jul 06 11:45:26 2019, MaxMem=   209715200 cpu:         3.0
 (Enter C:\G09W\l303.exe)
 DipDrv:  MaxL=1.
 Leave Link  303 at Sat Jul 06 11:45:26 2019, MaxMem=   209715200 cpu:         0.0
 (Enter C:\G09W\l401.exe)
 ExpMin= 3.50D-02 ExpMax= 4.40D+05 ExpMxC= 1.51D+04 IAcc=3 IRadAn=         5 AccDes= 0.00D+00
 Harris functional with IExCor=  402 and IRadAn=       5 diagonalized for initial guess.
 HarFok:  IExCor=  402 AccDes= 0.00D+00 IRadAn=         5 IDoV= 1 UseB2=F ITyADJ=14
 ICtDFT=  3500011 ScaDFX=  1.000000  1.000000  1.000000  1.000000
 FoFCou: FMM=F IPFlag=           0 FMFlag=      100000 FMFlg1=           0
         NFxFlg=           0 DoJE=T BraDBF=F KetDBF=T FulRan=T
         wScrn=  0.000000 ICntrl=     500 IOpCl=  0 I1Cent=   200000004 NGrid=           0
         NMat0=    1 NMatS0=      1 NMatT0=    0 NMatD0=    1 NMtDS0=    0 NMtDT0=    0
 Petite list used in FoFCou.
 Harris En= -4124.39098656944    
 JPrj=0 DoOrth=F DoCkMO=F.
 Leave Link  401 at Sat Jul 06 11:46:06 2019, MaxMem=   209715200 cpu:        40.0
 (Enter C:\G09W\l502.exe)
 Closed shell SCF:
 Using DIIS extrapolation, IDIIS=  1040.
 Integral symmetry usage will be decided dynamically.
 IVT=     1769672 IEndB=     1769672 NGot=   209715200 MDV=   208543575
 LenX=   208543575 LenY=   207962169
 Requested convergence on RMS density matrix=1.00D-08 within 128 cycles.
 Requested convergence on MAX density matrix=1.00D-06.
 Requested convergence on             energy=1.00D-06.
 No special actions if energy rises.
 Fock matrices will be formed incrementally for  20 cycles.

 Cycle   1  Pass 1  IDiag  1:
 FoFJK:  IHMeth= 1 ICntrl=       0 DoSepK=F KAlg= 0 I1Cent=   0 FoldK=F
 IRaf= 760000000 NMat=   1 IRICut=       1 DoRegI=T DoRafI=F ISym2E= 0.
 FoFCou: FMM=F IPFlag=           0 FMFlag=      100000 FMFlg1=           0
         NFxFlg=           0 DoJE=F BraDBF=F KetDBF=F FulRan=T
         wScrn=  0.000000 ICntrl=       0 IOpCl=  0 I1Cent=           0 NGrid=           0
         NMat0=    1 NMatS0=      1 NMatT0=    0 NMatD0=    1 NMtDS0=    0 NMtDT0=    0
 Symmetry not used in FoFCou.
 E= -4123.73462972037    
 DIIS: error= 7.61D-02 at cycle   1 NSaved=   1.
 NSaved= 1 IEnMin= 1 EnMin= -4123.73462972037     IErMin= 1 ErrMin= 7.61D-02
 ErrMax= 7.61D-02  0.00D+00 EMaxC= 1.00D-01 BMatC= 1.90D+00 BMatP= 1.90D+00
 IDIUse=3 WtCom= 2.39D-01 WtEn= 7.61D-01
 Coeff-Com:  0.100D+01
 Coeff-En:   0.100D+01
 Coeff:      0.100D+01
 Gap=     0.340 Goal=   None    Shift=    0.000
 GapD=    0.340 DampG=1.000 DampE=0.500 DampFc=0.5000 IDamp=-1.
 Damping current iteration by 5.00D-01
 RMSDP=3.62D-02 MaxDP=3.26D+00              OVMax= 2.36D-01

 Cycle   2  Pass 1  IDiag  1:
 RMSU=  1.75D-02    CP:  1.08D+00
 E= -4123.96386321884     Delta-E=       -0.229233498470 Rises=F Damp=T
 DIIS: error= 3.74D-02 at cycle   2 NSaved=   2.
 NSaved= 2 IEnMin= 2 EnMin= -4123.96386321884     IErMin= 2 ErrMin= 3.74D-02
 ErrMax= 3.74D-02  0.00D+00 EMaxC= 1.00D-01 BMatC= 2.64D-01 BMatP= 1.90D+00
 IDIUse=3 WtCom= 6.26D-01 WtEn= 3.74D-01
 Coeff-Com: -0.121D+00 0.112D+01
 Coeff-En:   0.216D+00 0.784D+00
 Coeff:      0.538D-02 0.995D+00
 Gap=     0.229 Goal=   None    Shift=    0.000
 RMSDP=2.01D-02 MaxDP=2.37D+00 DE=-2.29D-01 OVMax= 1.63D-01

 Cycle   3  Pass 1  IDiag  1:
 RMSU=  1.26D-02    CP:  9.13D-01  2.88D-01
 E= -4124.21063563102     Delta-E=       -0.246772412174 Rises=F Damp=F
 DIIS: error= 1.57D-02 at cycle   3 NSaved=   3.
 NSaved= 3 IEnMin= 3 EnMin= -4124.21063563102     IErMin= 3 ErrMin= 1.57D-02
 ErrMax= 1.57D-02  0.00D+00 EMaxC= 1.00D-01 BMatC= 1.82D-01 BMatP= 2.64D-01
 IDIUse=3 WtCom= 8.43D-01 WtEn= 1.57D-01
 Coeff-Com: -0.165D+00 0.575D+00 0.590D+00
 Coeff-En:   0.000D+00 0.000D+00 0.100D+01
 Coeff:     -0.139D+00 0.485D+00 0.654D+00
 Gap=     0.200 Goal=   None    Shift=    0.000
 RMSDP=7.87D-03 MaxDP=7.02D-01 DE=-2.47D-01 OVMax= 1.25D-01

 Cycle   4  Pass 1  IDiag  1:
 RMSU=  6.06D-03    CP:  9.08D-01  5.69D-01  9.23D-01
 E= -4124.26767573829     Delta-E=       -0.057040107273 Rises=F Damp=F
 DIIS: error= 1.17D-02 at cycle   4 NSaved=   4.
 NSaved= 4 IEnMin= 4 EnMin= -4124.26767573829     IErMin= 4 ErrMin= 1.17D-02
 ErrMax= 1.17D-02  0.00D+00 EMaxC= 1.00D-01 BMatC= 1.00D-01 BMatP= 1.82D-01
 IDIUse=3 WtCom= 8.83D-01 WtEn= 1.17D-01
 Coeff-Com: -0.835D-01 0.223D+00 0.456D+00 0.404D+00
 Coeff-En:   0.000D+00 0.000D+00 0.395D+00 0.605D+00
 Coeff:     -0.738D-01 0.197D+00 0.449D+00 0.428D+00
 Gap=     0.183 Goal=   None    Shift=    0.000
 RMSDP=4.95D-03 MaxDP=4.70D-01 DE=-5.70D-02 OVMax= 7.11D-02

 Cycle   5  Pass 1  IDiag  1:
 RMSU=  2.70D-03    CP:  8.94D-01  4.65D-01  8.21D-01  4.37D-01
 E= -4124.34523817372     Delta-E=       -0.077562435426 Rises=F Damp=F
 DIIS: error= 1.85D-03 at cycle   5 NSaved=   5.
 NSaved= 5 IEnMin= 5 EnMin= -4124.34523817372     IErMin= 5 ErrMin= 1.85D-03
 ErrMax= 1.85D-03  0.00D+00 EMaxC= 1.00D-01 BMatC= 3.06D-03 BMatP= 1.00D-01
 IDIUse=3 WtCom= 9.81D-01 WtEn= 1.85D-02
 Coeff-Com: -0.259D-01 0.641D-01 0.184D+00 0.236D+00 0.542D+00
 Coeff-En:   0.000D+00 0.000D+00 0.000D+00 0.000D+00 0.100D+01
 Coeff:     -0.254D-01 0.629D-01 0.180D+00 0.231D+00 0.551D+00
 Gap=     0.174 Goal=   None    Shift=    0.000
 RMSDP=1.74D-03 MaxDP=2.40D-01 DE=-7.76D-02 OVMax= 1.93D-02

 Cycle   6  Pass 1  IDiag  1:
 RMSU=  7.36D-04    CP:  8.85D-01  4.61D-01  8.91D-01  5.65D-01  6.61D-01
 E= -4124.34772150003     Delta-E=       -0.002483326310 Rises=F Damp=F
 DIIS: error= 5.49D-04 at cycle   6 NSaved=   6.
 NSaved= 6 IEnMin= 6 EnMin= -4124.34772150003     IErMin= 6 ErrMin= 5.49D-04
 ErrMax= 5.49D-04  0.00D+00 EMaxC= 1.00D-01 BMatC= 3.72D-04 BMatP= 3.06D-03
 IDIUse=3 WtCom= 9.95D-01 WtEn= 5.49D-03
 Coeff-Com: -0.534D-02 0.117D-01 0.460D-01 0.809D-01 0.324D+00 0.542D+00
 Coeff-En:   0.000D+00 0.000D+00 0.000D+00 0.000D+00 0.600D-01 0.940D+00
 Coeff:     -0.531D-02 0.116D-01 0.457D-01 0.805D-01 0.323D+00 0.544D+00
 Gap=     0.176 Goal=   None    Shift=    0.000
 RMSDP=4.30D-04 MaxDP=4.97D-02 DE=-2.48D-03 OVMax= 7.03D-03

 Cycle   7  Pass 1  IDiag  1:
 RMSU=  1.86D-04    CP:  8.88D-01  4.65D-01  8.89D-01  5.56D-01  6.82D-01
                    CP:  5.57D-01
 E= -4124.34801205400     Delta-E=       -0.000290553973 Rises=F Damp=F
 DIIS: error= 1.79D-04 at cycle   7 NSaved=   7.
 NSaved= 7 IEnMin= 7 EnMin= -4124.34801205400     IErMin= 7 ErrMin= 1.79D-04
 ErrMax= 1.79D-04  0.00D+00 EMaxC= 1.00D-01 BMatC= 3.40D-05 BMatP= 3.72D-04
 IDIUse=3 WtCom= 9.98D-01 WtEn= 1.79D-03
 Coeff-Com: -0.740D-03 0.132D-02 0.751D-02 0.196D-01 0.126D+00 0.296D+00
 Coeff-Com:  0.550D+00
 Coeff-En:   0.000D+00 0.000D+00 0.000D+00 0.000D+00 0.000D+00 0.169D-01
 Coeff-En:   0.983D+00
 Coeff:     -0.738D-03 0.132D-02 0.749D-02 0.196D-01 0.126D+00 0.296D+00
 Coeff:      0.551D+00
 Gap=     0.176 Goal=   None    Shift=    0.000
 RMSDP=1.44D-04 MaxDP=1.85D-02 DE=-2.91D-04 OVMax= 2.69D-03

 Cycle   8  Pass 1  IDiag  1:
 RMSU=  7.21D-05    CP:  8.88D-01  4.64D-01  8.91D-01  5.59D-01  6.89D-01
                    CP:  6.48D-01  4.95D-01
 E= -4124.34803770951     Delta-E=       -0.000025655512 Rises=F Damp=F
 DIIS: error= 9.46D-05 at cycle   8 NSaved=   8.
 NSaved= 8 IEnMin= 8 EnMin= -4124.34803770951     IErMin= 8 ErrMin= 9.46D-05
 ErrMax= 9.46D-05  0.00D+00 EMaxC= 1.00D-01 BMatC= 7.07D-06 BMatP= 3.40D-05
 IDIUse=1 WtCom= 1.00D+00 WtEn= 0.00D+00
 Coeff-Com:  0.241D-03-0.622D-03-0.900D-03 0.187D-02 0.409D-01 0.120D+00
 Coeff-Com:  0.354D+00 0.484D+00
 Coeff:      0.241D-03-0.622D-03-0.900D-03 0.187D-02 0.409D-01 0.120D+00
 Coeff:      0.354D+00 0.484D+00
 Gap=     0.176 Goal=   None    Shift=    0.000
 RMSDP=5.88D-05 MaxDP=5.99D-03 DE=-2.57D-05 OVMax= 1.06D-03

 Cycle   9  Pass 1  IDiag  1:
 RMSU=  2.58D-05    CP:  8.88D-01  4.64D-01  8.88D-01  5.56D-01  6.96D-01
                    CP:  6.33D-01  5.68D-01  6.60D-01
 E= -4124.34804398387     Delta-E=       -0.000006274363 Rises=F Damp=F
 DIIS: error= 2.38D-05 at cycle   9 NSaved=   9.
 NSaved= 9 IEnMin= 9 EnMin= -4124.34804398387     IErMin= 9 ErrMin= 2.38D-05
 ErrMax= 2.38D-05  0.00D+00 EMaxC= 1.00D-01 BMatC= 4.22D-07 BMatP= 7.07D-06
 IDIUse=1 WtCom= 1.00D+00 WtEn= 0.00D+00
 Coeff-Com:  0.214D-03-0.499D-03-0.841D-03-0.245D-03 0.150D-01 0.469D-01
 Coeff-Com:  0.159D+00 0.273D+00 0.507D+00
 Coeff:      0.214D-03-0.499D-03-0.841D-03-0.245D-03 0.150D-01 0.469D-01
 Coeff:      0.159D+00 0.273D+00 0.507D+00
 Gap=     0.176 Goal=   None    Shift=    0.000
 RMSDP=1.35D-05 MaxDP=1.24D-03 DE=-6.27D-06 OVMax= 2.16D-04

 Cycle  10  Pass 1  IDiag  1:
 RMSU=  6.80D-06    CP:  8.88D-01  4.64D-01  8.88D-01  5.56D-01  6.95D-01
                    CP:  6.34D-01  5.88D-01  6.34D-01  7.02D-01
 E= -4124.34804432974     Delta-E=       -0.000000345869 Rises=F Damp=F
 DIIS: error= 1.12D-05 at cycle  10 NSaved=  10.
 NSaved=10 IEnMin=10 EnMin= -4124.34804432974     IErMin=10 ErrMin= 1.12D-05
 ErrMax= 1.12D-05  0.00D+00 EMaxC= 1.00D-01 BMatC= 5.36D-08 BMatP= 4.22D-07
 IDIUse=1 WtCom= 1.00D+00 WtEn= 0.00D+00
 Coeff-Com:  0.937D-04-0.221D-03-0.316D-03-0.455D-03 0.300D-02 0.102D-01
 Coeff-Com:  0.439D-01 0.916D-01 0.293D+00 0.559D+00
 Coeff:      0.937D-04-0.221D-03-0.316D-03-0.455D-03 0.300D-02 0.102D-01
 Coeff:      0.439D-01 0.916D-01 0.293D+00 0.559D+00
 Gap=     0.176 Goal=   None    Shift=    0.000
 RMSDP=3.80D-06 MaxDP=3.12D-04 DE=-3.46D-07 OVMax= 7.09D-05

 Cycle  11  Pass 1  IDiag  1:
 RMSU=  2.20D-06    CP:  8.88D-01  4.64D-01  8.89D-01  5.56D-01  6.95D-01
                    CP:  6.34D-01  5.87D-01  6.40D-01  7.26D-01  7.68D-01
 E= -4124.34804437904     Delta-E=       -0.000000049300 Rises=F Damp=F
 DIIS: error= 2.68D-06 at cycle  11 NSaved=  11.
 NSaved=11 IEnMin=11 EnMin= -4124.34804437904     IErMin=11 ErrMin= 2.68D-06
 ErrMax= 2.68D-06  0.00D+00 EMaxC= 1.00D-01 BMatC= 5.37D-09 BMatP= 5.36D-08
 IDIUse=1 WtCom= 1.00D+00 WtEn= 0.00D+00
 Coeff-Com:  0.342D-04-0.828D-04-0.111D-03-0.251D-03 0.501D-03 0.215D-02
 Coeff-Com:  0.128D-01 0.322D-01 0.133D+00 0.325D+00 0.496D+00
 Coeff:      0.342D-04-0.828D-04-0.111D-03-0.251D-03 0.501D-03 0.215D-02
 Coeff:      0.128D-01 0.322D-01 0.133D+00 0.325D+00 0.496D+00
 Gap=     0.176 Goal=   None    Shift=    0.000
 RMSDP=1.40D-06 MaxDP=1.21D-04 DE=-4.93D-08 OVMax= 1.98D-05

 Cycle  12  Pass 1  IDiag  1:
 RMSU=  8.33D-07    CP:  8.88D-01  4.64D-01  8.89D-01  5.56D-01  6.95D-01
                    CP:  6.34D-01  5.87D-01  6.41D-01  7.28D-01  7.86D-01
                    CP:  7.70D-01
 E= -4124.34804438404     Delta-E=       -0.000000004994 Rises=F Damp=F
 DIIS: error= 8.00D-07 at cycle  12 NSaved=  12.
 NSaved=12 IEnMin=12 EnMin= -4124.34804438404     IErMin=12 ErrMin= 8.00D-07
 ErrMax= 8.00D-07  0.00D+00 EMaxC= 1.00D-01 BMatC= 5.25D-10 BMatP= 5.37D-09
 IDIUse=1 WtCom= 1.00D+00 WtEn= 0.00D+00
 Coeff-Com:  0.386D-05-0.939D-05-0.196D-04-0.562D-04-0.190D-03-0.395D-03
 Coeff-Com: -0.340D-03 0.205D-02 0.240D-01 0.764D-01 0.258D+00 0.641D+00
 Coeff:      0.386D-05-0.939D-05-0.196D-04-0.562D-04-0.190D-03-0.395D-03
 Coeff:     -0.340D-03 0.205D-02 0.240D-01 0.764D-01 0.258D+00 0.641D+00
 Gap=     0.176 Goal=   None    Shift=    0.000
 RMSDP=4.79D-07 MaxDP=4.63D-05 DE=-4.99D-09 OVMax= 6.01D-06

 Cycle  13  Pass 1  IDiag  1:
 RMSU=  2.72D-07    CP:  8.88D-01  4.64D-01  8.89D-01  5.56D-01  6.95D-01
                    CP:  6.33D-01  5.87D-01  6.43D-01  7.30D-01  7.98D-01
                    CP:  7.60D-01  7.72D-01
 E= -4124.34804438426     Delta-E=       -0.000000000222 Rises=F Damp=F
 DIIS: error= 3.98D-07 at cycle  13 NSaved=  13.
 NSaved=13 IEnMin=13 EnMin= -4124.34804438426     IErMin=13 ErrMin= 3.98D-07
 ErrMax= 3.98D-07  0.00D+00 EMaxC= 1.00D-01 BMatC= 5.08D-11 BMatP= 5.25D-10
 IDIUse=1 WtCom= 1.00D+00 WtEn= 0.00D+00
 Coeff-Com: -0.134D-06 0.181D-06-0.623D-05-0.124D-04-0.129D-03-0.301D-03
 Coeff-Com: -0.876D-03-0.896D-03 0.406D-02 0.167D-01 0.998D-01 0.323D+00
 Coeff-Com:  0.559D+00
 Coeff:     -0.134D-06 0.181D-06-0.623D-05-0.124D-04-0.129D-03-0.301D-03
 Coeff:     -0.876D-03-0.896D-03 0.406D-02 0.167D-01 0.998D-01 0.323D+00
 Coeff:      0.559D+00
 Gap=     0.176 Goal=   None    Shift=    0.000
 RMSDP=1.27D-07 MaxDP=1.32D-05 DE=-2.22D-10 OVMax= 3.40D-06

 Cycle  14  Pass 1  IDiag  1:
 RMSU=  6.65D-08    CP:  8.88D-01  4.64D-01  8.89D-01  5.56D-01  6.95D-01
                    CP:  6.33D-01  5.87D-01  6.42D-01  7.30D-01  8.00D-01
                    CP:  7.76D-01  8.10D-01  8.20D-01
 E= -4124.34804438354     Delta-E=        0.000000000717 Rises=F Damp=F
 DIIS: error= 2.72D-07 at cycle  14 NSaved=  14.
 NSaved=14 IEnMin=13 EnMin= -4124.34804438426     IErMin=14 ErrMin= 2.72D-07
 ErrMax= 2.72D-07  0.00D+00 EMaxC= 1.00D-01 BMatC= 1.04D-11 BMatP= 5.08D-11
 IDIUse=1 WtCom= 1.00D+00 WtEn= 0.00D+00
 Coeff-Com: -0.764D-06 0.169D-05-0.130D-05 0.725D-06-0.600D-04-0.142D-03
 Coeff-Com: -0.527D-03-0.938D-03-0.119D-02-0.137D-02 0.232D-01 0.975D-01
 Coeff-Com:  0.350D+00 0.534D+00
 Coeff:     -0.764D-06 0.169D-05-0.130D-05 0.725D-06-0.600D-04-0.142D-03
 Coeff:     -0.527D-03-0.938D-03-0.119D-02-0.137D-02 0.232D-01 0.975D-01
 Coeff:      0.350D+00 0.534D+00
 Gap=     0.176 Goal=   None    Shift=    0.000
 RMSDP=4.37D-08 MaxDP=3.95D-06 DE= 7.17D-10 OVMax= 1.60D-06

 Cycle  15  Pass 1  IDiag  1:
 RMSU=  2.64D-08    CP:  8.88D-01  4.64D-01  8.89D-01  5.56D-01  6.95D-01
                    CP:  6.33D-01  5.87D-01  6.42D-01  7.30D-01  7.99D-01
                    CP:  7.84D-01  8.10D-01  8.02D-01  8.10D-01
 E= -4124.34804438427     Delta-E=       -0.000000000730 Rises=F Damp=F
 DIIS: error= 6.26D-08 at cycle  15 NSaved=  15.
 NSaved=15 IEnMin=15 EnMin= -4124.34804438427     IErMin=15 ErrMin= 6.26D-08
 ErrMax= 6.26D-08  0.00D+00 EMaxC= 1.00D-01 BMatC= 7.13D-13 BMatP= 1.04D-11
 IDIUse=1 WtCom= 1.00D+00 WtEn= 0.00D+00
 Coeff-Com: -0.403D-06 0.897D-06-0.235D-06 0.152D-05-0.213D-04-0.510D-04
 Coeff-Com: -0.212D-03-0.448D-03-0.104D-02-0.220D-02 0.395D-02 0.254D-01
 Coeff-Com:  0.151D+00 0.295D+00 0.529D+00
 Coeff:     -0.403D-06 0.897D-06-0.235D-06 0.152D-05-0.213D-04-0.510D-04
 Coeff:     -0.212D-03-0.448D-03-0.104D-02-0.220D-02 0.395D-02 0.254D-01
 Coeff:      0.151D+00 0.295D+00 0.529D+00
 Gap=     0.176 Goal=   None    Shift=    0.000
 RMSDP=1.60D-08 MaxDP=1.11D-06 DE=-7.30D-10 OVMax= 4.09D-07

 Cycle  16  Pass 1  IDiag  1:
 RMSU=  7.72D-09    CP:  8.88D-01  4.64D-01  8.89D-01  5.56D-01  6.95D-01
                    CP:  6.33D-01  5.87D-01  6.42D-01  7.30D-01  7.99D-01
                    CP:  7.82D-01  8.08D-01  8.25D-01  8.46D-01  8.34D-01
 E= -4124.34804438342     Delta-E=        0.000000000855 Rises=F Damp=F
 DIIS: error= 1.77D-08 at cycle  16 NSaved=  16.
 NSaved=16 IEnMin=15 EnMin= -4124.34804438427     IErMin=16 ErrMin= 1.77D-08
 ErrMax= 1.77D-08  0.00D+00 EMaxC= 1.00D-01 BMatC= 9.58D-14 BMatP= 7.13D-13
 IDIUse=1 WtCom= 1.00D+00 WtEn= 0.00D+00
 Coeff-Com: -0.932D-07 0.209D-06 0.145D-06 0.486D-06-0.252D-05-0.743D-05
 Coeff-Com: -0.339D-04-0.902D-04-0.316D-03-0.717D-03-0.105D-02-0.361D-03
 Coeff-Com:  0.271D-01 0.688D-01 0.289D+00 0.618D+00
 Coeff:     -0.932D-07 0.209D-06 0.145D-06 0.486D-06-0.252D-05-0.743D-05
 Coeff:     -0.339D-04-0.902D-04-0.316D-03-0.717D-03-0.105D-02-0.361D-03
 Coeff:      0.271D-01 0.688D-01 0.289D+00 0.618D+00
 Gap=     0.176 Goal=   None    Shift=    0.000
 RMSDP=8.51D-09 MaxDP=1.07D-06 DE= 8.55D-10 OVMax= 1.03D-07

 Cycle  17  Pass 1  IDiag  1:
 RMSU=  3.16D-09    CP:  8.88D-01  4.64D-01  8.89D-01  5.56D-01  6.95D-01
                    CP:  6.33D-01  5.87D-01  6.42D-01  7.30D-01  7.99D-01
                    CP:  7.82D-01  8.09D-01  8.32D-01  8.25D-01  7.91D-01
                    CP:  7.89D-01
 E= -4124.34804438375     Delta-E=       -0.000000000331 Rises=F Damp=F
 DIIS: error= 2.74D-09 at cycle  17 NSaved=  17.
 NSaved=17 IEnMin=15 EnMin= -4124.34804438427     IErMin=17 ErrMin= 2.74D-09
 ErrMax= 2.74D-09  0.00D+00 EMaxC= 1.00D-01 BMatC= 1.04D-14 BMatP= 9.58D-14
 IDIUse=1 WtCom= 1.00D+00 WtEn= 0.00D+00
 Coeff-Com: -0.102D-07 0.261D-07 0.115D-06 0.797D-07 0.751D-06 0.886D-06
 Coeff-Com:  0.139D-05-0.633D-05-0.861D-04-0.211D-03-0.110D-02-0.289D-02
 Coeff-Com: -0.443D-03 0.721D-02 0.106D+00 0.329D+00 0.563D+00
 Coeff:     -0.102D-07 0.261D-07 0.115D-06 0.797D-07 0.751D-06 0.886D-06
 Coeff:      0.139D-05-0.633D-05-0.861D-04-0.211D-03-0.110D-02-0.289D-02
 Coeff:     -0.443D-03 0.721D-02 0.106D+00 0.329D+00 0.563D+00
 Gap=     0.176 Goal=   None    Shift=    0.000
 RMSDP=2.24D-09 MaxDP=2.42D-07 DE=-3.31D-10 OVMax= 3.60D-08

 SCF Done:  E(RB3LYP) =  -4124.34804438     A.U. after   17 cycles
            NFock= 17  Conv=0.22D-08     -V/T= 2.0019
 KE= 4.116692337723D+03 PE=-1.556689007680D+04 EE= 4.434872476233D+03
 Leave Link  502 at Sat Jul 06 12:22:56 2019, MaxMem=   209715200 cpu:      2210.0
 (Enter C:\G09W\l601.exe)
 Copying SCF densities to generalized density rwf, IOpCl= 0 IROHF=0.

 **********************************************************************

            Population analysis using the SCF density.

 **********************************************************************

 Orbital symmetries:
       Occupied  (A) (A) (A) (A) (A) (A) (A) (A) (A) (A) (A) (A)
                 (A) (A) (A) (A) (A) (A) (A) (A) (A) (A) (A) (A)
                 (A) (A) (A) (A) (A) (A) (A) (A) (A) (A) (A) (A)
                 (A) (A) (A) (A) (A) (A) (A) (A) (A) (A) (A) (A)
                 (A) (A) (A) (A) (A) (A) (A) (A) (A) (A) (A) (A)
                 (A) (A) (A) (A) (A) (A) (A) (A) (A) (A) (A) (A)
                 (A) (A) (A) (A) (A) (A) (A) (A) (A) (A) (A) (A)
                 (A) (A) (A) (A) (A) (A) (A) (A) (A) (A) (A) (A)
                 (A) (A) (A) (A) (A) (A) (A) (A) (A) (A) (A) (A)
                 (A) (A) (A) (A)
       Virtual   (A) (A) (A) (A) (A) (A) (A) (A) (A) (A) (A) (A)
                 (A) (A) (A) (A) (A) (A) (A) (A) (A) (A) (A) (A)
                 (A) (A) (A) (A) (A) (A) (A) (A) (A) (A) (A) (A)
                 (A) (A) (A) (A) (A) (A) (A) (A) (A) (A) (A) (A)
                 (A) (A) (A) (A) (A) (A) (A) (A) (A) (A) (A) (A)
                 (A) (A) (A) (A) (A) (A) (A) (A) (A) (A) (A) (A)
                 (A) (A) (A) (A) (A) (A) (A) (A) (A) (A) (A) (A)
                 (A) (A) (A) (A) (A) (A) (A) (A) (A) (A) (A) (A)
                 (A) (A) (A) (A) (A) (A) (A) (A) (A) (A) (A) (A)
                 (A) (A) (A) (A) (A) (A) (A) (A) (A) (A) (A) (A)
                 (A) (A) (A) (A) (A) (A) (A) (A) (A) (A) (A) (A)
                 (A) (A) (A) (A) (A) (A) (A) (A) (A) (A) (A) (A)
                 (A) (A) (A) (A) (A) (A) (A) (A) (A) (A) (A) (A)
                 (A) (A) (A) (A) (A) (A) (A) (A) (A) (A) (A) (A)
                 (A) (A) (A) (A) (A) (A) (A) (A) (A) (A) (A) (A)
                 (A) (A) (A) (A) (A) (A) (A) (A) (A) (A) (A) (A)
                 (A) (A) (A) (A) (A) (A) (A) (A) (A) (A) (A) (A)
                 (A) (A) (A) (A) (A) (A) (A) (A) (A) (A) (A) (A)
                 (A) (A) (A) (A) (A) (A) (A) (A) (A) (A) (A) (A)
                 (A) (A) (A) (A) (A) (A) (A) (A) (A) (A) (A) (A)
                 (A) (A) (A) (A) (A) (A) (A) (A) (A) (A) (A) (A)
                 (A) (A) (A) (A) (A) (A) (A) (A) (A) (A) (A) (A)
                 (A) (A) (A) (A) (A) (A) (A) (A) (A) (A) (A) (A)
                 (A) (A) (A) (A) (A) (A) (A) (A) (A) (A) (A) (A)
                 (A) (A) (A) (A) (A) (A) (A) (A) (A) (A) (A) (A)
                 (A) (A) (A) (A) (A) (A) (A) (A) (A) (A) (A) (A)
                 (A) (A) (A) (A) (A) (A) (A) (A) (A) (A) (A) (A)
                 (A) (A) (A) (A) (A) (A) (A) (A) (A) (A) (A) (A)
                 (A) (A) (A) (A) (A) (A) (A) (A) (A) (A) (A) (A)
                 (A) (A) (A) (A) (A) (A) (A) (A) (A) (A) (A) (A)
                 (A) (A) (A) (A) (A) (A) (A) (A) (A) (A) (A) (A)
                 (A) (A) (A) (A) (A) (A) (A) (A) (A) (A) (A) (A)
                 (A) (A) (A) (A) (A) (A) (A) (A) (A) (A) (A) (A)
                 (A) (A) (A) (A) (A) (A) (A) (A) (A) (A) (A) (A)
                 (A) (A) (A) (A) (A) (A) (A) (A) (A) (A) (A) (A)
                 (A) (A) (A) (A) (A) (A) (A) (A) (A) (A) (A) (A)
                 (A) (A) (A) (A) (A) (A) (A) (A) (A) (A) (A) (A)
                 (A) (A) (A) (A) (A) (A) (A) (A) (A) (A) (A) (A)
                 (A) (A) (A) (A) (A) (A) (A) (A) (A) (A) (A) (A)
                 (A) (A) (A) (A) (A) (A) (A) (A) (A) (A) (A) (A)
                 (A) (A) (A) (A) (A) (A) (A) (A) (A) (A) (A) (A)
                 (A) (A) (A) (A) (A) (A) (A) (A) (A) (A) (A) (A)
                 (A) (A) (A) (A) (A) (A) (A) (A) (A) (A) (A) (A)
                 (A) (A) (A) (A) (A) (A) (A) (A) (A) (A) (A) (A)
                 (A) (A) (A) (A) (A) (A) (A) (A) (A) (A) (A) (A)
                 (A) (A) (A) (A) (A) (A) (A) (A) (A) (A) (A) (A)
                 (A) (A) (A) (A) (A) (A) (A) (A) (A) (A) (A) (A)
                 (A) (A) (A) (A) (A) (A) (A) (A) (A) (A) (A) (A)
                 (A) (A) (A) (A) (A) (A) (A) (A) (A) (A) (A) (A)
                 (A) (A) (A) (A) (A) (A) (A) (A) (A) (A) (A) (A)
                 (A) (A) (A) (A) (A) (A) (A) (A) (A) (A) (A) (A)
                 (A) (A)
 The electronic state is 1-A.
 Alpha  occ. eigenvalues -- -482.84815-101.57196 -62.50110 -56.32144 -56.31758
 Alpha  occ. eigenvalues --  -56.31744 -19.17802 -19.14200 -19.10915 -14.37834
 Alpha  occ. eigenvalues --  -10.30409 -10.26771 -10.25819 -10.25564 -10.25346
 Alpha  occ. eigenvalues --  -10.25271 -10.23392 -10.21450 -10.21398 -10.21385
 Alpha  occ. eigenvalues --  -10.21212 -10.19561 -10.19300 -10.19241 -10.18569
 Alpha  occ. eigenvalues --  -10.18471 -10.18391 -10.18289 -10.18262 -10.18217
 Alpha  occ. eigenvalues --  -10.18162  -9.48634  -8.71093  -7.25107  -7.24096
 Alpha  occ. eigenvalues --   -7.24091  -6.54241  -6.52942  -6.52910  -2.65338
 Alpha  occ. eigenvalues --   -2.64963  -2.64941  -2.63909  -2.63908  -1.13570
 Alpha  occ. eigenvalues --   -1.06332  -1.04619  -1.00027  -0.91275  -0.89417
 Alpha  occ. eigenvalues --   -0.89233  -0.84641  -0.83741  -0.81080  -0.79653
 Alpha  occ. eigenvalues --   -0.79416  -0.78152  -0.75604  -0.75057  -0.73610
 Alpha  occ. eigenvalues --   -0.68908  -0.66455  -0.65228  -0.63527  -0.63020
 Alpha  occ. eigenvalues --   -0.61940  -0.61369  -0.60235  -0.56135  -0.55614
 Alpha  occ. eigenvalues --   -0.54345  -0.53918  -0.52971  -0.51736  -0.51532
 Alpha  occ. eigenvalues --   -0.51140  -0.50135  -0.47654  -0.47195  -0.46808
 Alpha  occ. eigenvalues --   -0.46739  -0.46190  -0.44852  -0.44542  -0.44017
 Alpha  occ. eigenvalues --   -0.43525  -0.42781  -0.42575  -0.41565  -0.40972
 Alpha  occ. eigenvalues --   -0.40643  -0.39867  -0.39547  -0.39083  -0.38473
 Alpha  occ. eigenvalues --   -0.37186  -0.35838  -0.35009  -0.34688  -0.34364
 Alpha  occ. eigenvalues --   -0.33539  -0.33388  -0.32368  -0.31120  -0.30277
 Alpha  occ. eigenvalues --   -0.30041  -0.29869  -0.28884  -0.27582  -0.25813
 Alpha  occ. eigenvalues --   -0.23959  -0.23579
 Alpha virt. eigenvalues --   -0.06011  -0.05533  -0.05395  -0.03379  -0.03204
 Alpha virt. eigenvalues --   -0.02901  -0.01571  -0.00942  -0.00661  -0.00456
 Alpha virt. eigenvalues --    0.00027   0.00317   0.00546   0.01465   0.01617
 Alpha virt. eigenvalues --    0.02016   0.02472   0.02792   0.02840   0.03618
 Alpha virt. eigenvalues --    0.03966   0.04643   0.04764   0.05211   0.05543
 Alpha virt. eigenvalues --    0.05800   0.06009   0.06292   0.06464   0.06765
 Alpha virt. eigenvalues --    0.06947   0.07423   0.07662   0.07876   0.08246
 Alpha virt. eigenvalues --    0.08412   0.08790   0.09083   0.09410   0.09602
 Alpha virt. eigenvalues --    0.09723   0.10048   0.10246   0.10289   0.10461
 Alpha virt. eigenvalues --    0.10682   0.10860   0.11058   0.11219   0.11524
 Alpha virt. eigenvalues --    0.11784   0.12009   0.12242   0.12417   0.12452
 Alpha virt. eigenvalues --    0.12763   0.12899   0.13177   0.13344   0.13440
 Alpha virt. eigenvalues --    0.13838   0.14079   0.14200   0.14387   0.14608
 Alpha virt. eigenvalues --    0.14933   0.15310   0.15540   0.15883   0.16045
 Alpha virt. eigenvalues --    0.16247   0.16760   0.16844   0.16963   0.17646
 Alpha virt. eigenvalues --    0.17709   0.17956   0.18295   0.18657   0.19042
 Alpha virt. eigenvalues --    0.19353   0.19642   0.19915   0.20163   0.20267
 Alpha virt. eigenvalues --    0.20411   0.20559   0.20686   0.20957   0.21273
 Alpha virt. eigenvalues --    0.21699   0.21820   0.22175   0.22343   0.22531
 Alpha virt. eigenvalues --    0.22991   0.23092   0.23222   0.23470   0.23771
 Alpha virt. eigenvalues --    0.24257   0.24501   0.24700   0.25210   0.25306
 Alpha virt. eigenvalues --    0.25631   0.25812   0.25987   0.26281   0.26529
 Alpha virt. eigenvalues --    0.26792   0.26972   0.27267   0.27297   0.27782
 Alpha virt. eigenvalues --    0.28067   0.28253   0.28575   0.28698   0.29223
 Alpha virt. eigenvalues --    0.29338   0.29429   0.29606   0.29857   0.30206
 Alpha virt. eigenvalues --    0.30284   0.30530   0.30692   0.31149   0.31679
 Alpha virt. eigenvalues --    0.32028   0.32345   0.32418   0.32885   0.33045
 Alpha virt. eigenvalues --    0.33267   0.34152   0.34205   0.34601   0.35090
 Alpha virt. eigenvalues --    0.35327   0.35647   0.35805   0.36188   0.36409
 Alpha virt. eigenvalues --    0.36875   0.36979   0.37482   0.38159   0.38785
 Alpha virt. eigenvalues --    0.39273   0.39514   0.39889   0.40223   0.41211
 Alpha virt. eigenvalues --    0.41876   0.42118   0.42545   0.42964   0.43620
 Alpha virt. eigenvalues --    0.44327   0.45020   0.45665   0.46375   0.47229
 Alpha virt. eigenvalues --    0.47696   0.48071   0.48595   0.49340   0.49801
 Alpha virt. eigenvalues --    0.50257   0.50955   0.51492   0.51943   0.53013
 Alpha virt. eigenvalues --    0.53275   0.53679   0.53878   0.54184   0.54751
 Alpha virt. eigenvalues --    0.55703   0.56241   0.56607   0.56836   0.57270
 Alpha virt. eigenvalues --    0.57611   0.58078   0.58418   0.58639   0.58992
 Alpha virt. eigenvalues --    0.59494   0.59593   0.60003   0.60615   0.60956
 Alpha virt. eigenvalues --    0.61244   0.61447   0.61905   0.62098   0.62688
 Alpha virt. eigenvalues --    0.62957   0.63389   0.64446   0.64573   0.65401
[...]
                                                    611(r),560(r),562(r),451(r)
                                                    642(v),476(r),665(r),646(v)
                                                    615(r),490(v),575(r),579(r)
                                                    664(r),520(r),692(r),607(r)
                                                    669(r),438(v),499(g),701(v)
                                                    489(v),484(v),367(v),524(r)
                                                    645(v),576(r),715(v),722(r)
                                                    452(r),694(v),569(r),572(r)
                                                    570(r),458(r),507(g),592(r)
                                                    716(g),536(r),460(r),512(g)
                                                    529(r),491(v),500(g),243(r)
                                                    382(g),434(v),436(v),463(r)
                                                    608(r),519(r),459(r),591(r)
                                                    603(r),666(r),670(r),341(r)
                                                    729(r),695(r),440(v),242(r)
                                                    456(r),617(r),543(r),567(r)
                                                    271(r),180(r),728(r)
   705. BD*(   1) O  17 - H  35          0.00928     0.42576   
   706. BD*(   1) C  19 - C  20          0.01297     0.56954   
   707. BD*(   2) C  19 - C  20          0.23894     0.02748  712(v),704(v),604(r),342(r)
                                                    441(g),667(r),346(r),433(g)
                                                    616(r),566(r),643(r),561(r)
                                                    377(v),278(r),158(r),508(r)
                                                    570(r),644(r),350(r),474(v)
                                                    511(r),328(r),594(r),454(g)
                                                    525(r),482(r),721(r),496(r)
                                                    320(r),450(g),495(r),553(r)
                                                    701(r),588(r),354(r),202(r)
                                                    498(r),434(g),502(r),590(r)
                                                    493(r),453(g),539(r),554(r)
                                                    455(g),473(v),660(r),527(r)
                                                    484(r),380(v),544(r),603(r)
                                                    670(r),606(r),730(r)
   708. BD*(   1) C  19 - H  36          0.01415     0.15217   
   709. BD*(   1) C  20 - C  21          0.02237     0.53437   
   710. BD*(   1) C  20 - H  37          0.01433     0.43272   
   711. BD*(   1) C  21 - C  22          0.03474     0.50972   
   712. BD*(   2) C  21 - C  22          0.46115     0.02268  704(v),707(v),342(r),667(r)
                                                    346(r),441(r),433(r),561(r)
                                                    619(r),668(r),643(r),377(r)
                                                    566(v),594(r),278(r),616(r)
                                                    320(r),590(r),511(v),719(v)
                                                    644(r),454(v),474(g),158(r)
                                                    508(v),588(r),496(g),567(v)
                                                    482(g),350(r),525(v),568(v)
                                                    544(r),620(r),663(r),708(r)
                                                    549(r),724(r),504(v),483(g)
                                                    498(g),495(g),354(r),606(r)
                                                    328(r),497(g),539(r),573(v)
                                                    453(v),554(r),527(v),577(v)
                                                    553(r),492(g),452(v),500(v)
                                                    380(r),701(r),473(g),494(g)
                                                    202(r),450(v),614(r),512(v)
                                                    721(r),660(r),493(g),641(r)
                                                    457(v),651(r),485(g),565(v)
                                                    386(r),437(r),523(v),503(v)
                                                    501(v),725(v),589(r),610(r)
                                                    558(r),439(r),718(v),505(v)
                                                    693(r),659(r),713(g),506(v)
                                                    720(r),455(v),538(r),714(g)
                                                    642(r),593(r),585(r),611(r)
                                                    562(r),581(v),574(v),646(r)
                                                    575(v),665(r),490(g),476(g)
                                                    487(g),692(r),615(r),664(r)
                                                    438(r),520(v),607(r),579(v)
                                                    469(g),669(r),499(v),524(v)
                                                    489(g),451(v),580(v),576(v)
                                                    694(r),715(g),645(r),722(v)
                                                    570(v),569(v),560(r),470(g)
                                                    367(r),507(v),572(v),604(r)
                                                    458(v),460(v),436(r),486(g)
                                                    592(r),723(v),243(r),730(r)
   713. BD*(   1) C  21 - C  24          0.02232    -6.71925   
   714. BD*(   1) C  22 - C  23          0.02222    -8.39798   
   715. BD*(   1) C  22 - C  27          0.02213    -6.01459   
   716. BD*(   1) C  23 - H  38          0.01669     0.55907   
   717. BD*(   1) C  24 - C  25          0.01356     0.59914   
   718. BD*(   2) C  24 - C  25          0.25120     2.85882  555(v),556(v),557(v),295(r)
                                                    596(r),586(r),598(r),716(r)
                                                    579(r),559(v),663(r),385(r)
                                                    660(r),724(v),594(r),488(r)
                                                    119(r),550(v),580(r),620(r)
                                                    599(r),577(r),543(g),659(r)
                                                    553(v),542(g),619(r),610(r)
                                                    590(r),504(r),565(r),544(g)
                                                    614(r),491(r),564(v),713(g)
                                                    714(r),592(r),558(v),571(r)
                                                    476(v),723(v),719(g),483(r)
                                                    495(r),384(r),725(r),537(g)
                                                    477(v),454(r),611(r),485(r)
                                                    502(r),342(r),549(v),511(r)
                                                    574(r),497(r),498(r),602(r)
                                                    492(r),473(v),720(g),521(g)
                                                    657(v),573(r),562(v),474(v)
                                                    581(r),575(r),494(r),527(g)
                                                    717(g),381(r),482(r),281(r)
                                                    140(r),668(r),510(r),532(g)
                                                    561(v),538(g),669(r),615(r)
                                                    546(g),529(g),665(r),597(r)
                                                    457(r),644(r),501(r),353(r)
                                                    584(r),520(g),437(r),453(r)
                                                    519(g),386(r),354(r),503(r)
                                                    451(r),506(r),661(r),576(r)
                                                    568(r),612(r),380(r),379(r)
                                                    512(r),606(r),701(r),441(r)
                                                    588(r),523(g),346(r),646(r)
                                                    517(g),608(r),459(r),298(r)
                                                    593(r),439(r),722(v),607(r)
                                                    505(r),589(r),533(g),643(r)
                                                    694(r),524(g),367(r),656(v)
                                                    567(r),456(r),508(r),490(r)
                                                    708(r),452(r),387(r),632(r)
                                                    651(v),566(r),645(r),245(r)
                                                    641(r),513(r),350(r),377(r)
                                                    526(g),509(r),710(r),472(v)
                                                    642(r),370(r),692(r),460(r)
                                                    343(r),210(r),499(r),585(r)
                                                    458(r),471(v),712(v),489(r)
                                                    601(r),563(v),436(r),202(r)
                                                    525(g)
   719. BD*(   1) C  24 - H  39          0.01426    -0.24624   
   720. BD*(   1) C  25 - C  26          0.01781   -16.44264   
   721. BD*(   1) C  25 - H  40          0.01348    -3.60759   
   722. BD*(   1) C  26 - C  27          0.01413  -210.49187   
   723. BD*(   2) C  26 - C  27          0.24878     1.78169  137(r),580(g),529(r),460(r)
                                                    459(r),592(r),491(v),617(r)
                                                    602(r),472(r),476(r),579(g)
                                                    493(v),584(r),543(v),595(r)
                                                    662(v),511(r),342(r),544(v)
                                                    546(v),454(r),597(r),631(r)
                                                    242(r),609(r),508(r),663(v)
                                                    590(r),724(g),144(r),495(v)
                                                    542(v),566(g),474(r),157(r)
                                                    642(r),458(r),573(g),632(r)
                                                    441(r),614(r),504(r),610(r)
                                                    350(r),346(r),354(r),561(g)
                                                    565(g),497(v),611(r),510(r)
                                                    720(g),558(g),498(v),574(g)
                                                    488(v),453(r),492(v),568(g)
                                                    386(r),437(r),538(v),658(r)
                                                    380(r),523(r),644(r),539(v)
                                                    660(v),527(r),503(r),615(r)
                                                    444(r),473(r),665(v),455(r)
                                                    520(r),494(v),581(g),457(r)
                                                    490(v),593(r),549(g),506(r)
                                                    669(v),278(r),575(g),499(r)
                                                    483(v),525(r),576(g),646(r)
                                                    713(r),714(v),643(r),377(r)
                                                    659(v),451(r),607(r),367(r)
                                                    439(r),721(v),589(r),482(v)
                                                    489(v),505(r),722(g),585(r)
                                                    577(g),245(r),694(r),554(g)
                                                    463(r),601(r),645(r),512(r)
                                                    524(r),343(r),378(r),438(r)
                                                    502(r),664(v),202(r),641(r)
                                                    530(r),452(r),241(r),570(g)
                                                    436(r),553(g),606(r),619(r)
                                                    719(r),715(g),562(g),158(r)
                                                    274(r),243(r),572(g),624(r)
                                                    433(r),692(r),586(r),440(r)
                                                    507(r),521(r),620(r),271(r)
                                                    370(r),701(r),501(r),273(r)
                                                    588(r),693(r),651(r),341(r)
                                                    587(r),594(r),540(v),364(r)
                                                    500(r),277(r),383(r),281(r)
                                                    559(g),670(v),260(r),657(r)
                                                    276(r),560(g),320(r),126(r)
                                                    259(r),591(r),536(v),214(r)
                                                    154(r),381(r),237(r),228(r)
                                                    569(g),291(r),304(r),485(v)
                                                    139(r),625(r),603(r),716(r)
                                                    519(r),363(r),211(r),708(r)
                                                    456(r),324(r),550(g),666(v)
                                                    384(r),486(v),192(r),475(r)
                                                    382(r),533(v),280(r),464(r)
                                                    496(v),136(r),571(g),522(r)
                                                    124(r),462(r),328(r),184(r)
                                                    180(r),272(r),583(r),263(r)
                                                    206(r),449(r),296(r),730(r)
                                                    555(g),236(r),608(r),567(g)
                                                    471(r),537(v),729(r),478(r)
                                                    232(r),143(r),717(v),725(g)
                                                    286(r),613(r),275(r),295(r)
                                                    385(r),633(r),718(v),556(g)
                                                    621(r),193(r),443(r),445(r)
                                                    203(r),299(r),170(r),368(r)
                                                    582(r),477(r),213(r),284(r)
                                                    547(v),517(r),711(v),353(r)
                                                    329(r),578(g),612(r),325(r)
                                                    351(r),484(v),695(r),728(r)
                                                    509(r),638(r),564(g),656(r)
                                                    726(r),287(r),513(r),321(r)
                                                    345(r),369(r),123(r),548(v)
                                                    358(r),122(r),515(r),596(r)
                                                    435(r),626(r),465(r),432(r)
                                                    616(r),268(r),391(r),208(r)
                                                    526(r),224(r),732(r),727(r)
                                                    697(r),532(v),598(r),255(r)
                                                    667(v),188(r),557(g),140(r)
                                                    541(v),374(r),599(r),355(r)
                                                    379(r),257(r),307(r),362(r)
                                                    238(r),450(r),258(r),239(r)
                                                    175(r),246(r),357(r),516(r)
                                                    487(v),256(r),298(r),261(r)
                                                    563(g),623(r),227(r),289(r)
                                                    120(r),461(r),269(r),682(r)
                                                    706(r),185(r),639(r),209(r)
                                                    652(r),390(r),668(v),361(r)
                                                    733(r)
   724. BD*(   1) C  26 - H  41          0.01361    -5.04129   
   725. BD*(   1) C  27 - H  42          0.01412     1.45719   
       -------------------------------
              Total Lewis  219.29563  ( 97.8998%)
        Valence non-Lewis    4.29873  (  1.9191%)
        Rydberg non-Lewis    0.40564  (  0.1811%)
       -------------------------------
            Total unit  1  224.00000  (100.0000%)
           Charge unit  1    0.00000
 Leave Link  607 at Sat Jul 06 19:57:17 2019, MaxMem=   209715200 cpu:        24.0
 (Enter C:\G09W\l9999.exe)
 1|1|UNPC-CCSC-02011910|FOpt|RB3LYP|6-311++G(d,p)|C21H15Br1Cl1N1O3|EDUA
 RDO.MELO|06-Jul-2019|0||#p opt b3lyp/6-311++g(d,p) pop=nbo geom=connec
 tivity||9f.log||0,1|C,-2.2724214212,0.1049329121,-0.8653502008|C,-2.42
 39118862,1.0019610057,0.1965910941|C,-3.2894763847,0.676220383,1.24724
 88526|C,-3.9842101575,-0.5282277371,1.2448175026|C,-3.798306831,-1.423
 6042383,0.1947166693|C,-2.9455346366,-1.1140777685,-0.8599072146|N,-1.
 7671788818,2.2546260115,0.2216321843|C,-0.5024802764,2.5606669812,-0.1
 745276107|C,0.0040745858,3.8010340853,-0.3536271894|C,0.6276153423,1.5
 683809545,-0.3704003665|C,1.4201901071,3.7338819868,-0.6913389526|O,1.
 7548174391,2.3842018697,-0.7287550176|Cl,-0.8572351534,5.288974698,-0.
 1828859183|O,2.2227788226,4.5922266608,-0.9193714096|C,0.9492397632,0.
 7476212599,0.9038014573|C,1.9233810758,-0.4004619343,0.6876714851|O,1.
 358125998,1.6097710769,1.9611942444|Br,-4.7346852917,-3.0927902153,0.1
 976442155|C,1.8109409781,-1.5235737748,1.5529109378|C,2.6715396902,-2.
 5864205246,1.4512238036|C,3.7047631705,-2.5966459106,0.4774340542|C,3.
 8309024702,-1.470553592,-0.3935811445|C,2.9232708845,-0.3857051566,-0.
 2616207573|C,4.6122689791,-3.6785511814,0.3387471618|C,5.6009438493,-3
 .6478002168,-0.615936091|C,5.7282336699,-2.5322974935,-1.477020881|C,4
 .863502807,-1.4693973788,-1.3681405599|H,0.4394989997,0.886171828,-1.2
 014901747|H,0.0045204891,0.3201934932,1.2480538362|H,-1.6550817311,0.3
 636499395,-1.7159980102|H,-3.4090509963,1.3641617581,2.076845434|H,-4.
 6514480725,-0.7719950529,2.0612326255|H,-2.8213718919,-1.8040031962,-1
 .6844529168|H,-2.3144241148,3.0411037986,0.5465029202|H,2.2505254075,1
 .9213660379,1.7657410953|H,1.0298975197,-1.5313927414,2.3058722854|H,2
 .5689900315,-3.4369717823,2.1171240185|H,3.0427927719,0.4647346302,-0.
 9221774064|H,4.5146694343,-4.5325118594,1.0010219466|H,6.2897738937,-4
 .4795162861,-0.7119270607|H,6.5137098146,-2.5192422492,-2.2241312826|H
 ,4.9606107324,-0.6124910808,-2.0265186591||Version=IA32W-G09RevD.01|St
 ate=1-A|HF=-4124.3551262|RMSD=3.740e-009|RMSF=5.074e-006|Dipole=-1.186
 9618,-1.6004363,0.1907059|Quadrupole=6.1424058,-11.700621,5.5582151,-1
 8.5119989,-3.9774477,3.3574868|PG=C01 [X(C21H15Br1Cl1N1O3)]||@


 THEORY:  SUPPOSITION WHICH HAS SCIENTIFIC BASIS,
          BUT NOT EXPERIMENTALLY PROVEN.
 FACT:    A THEORY WHICH HAS BEEN PROVEN BY ENOUGH 
          MONEY TO PAY FOR THE EXPERIMENTS.

                          --  THE WIZARD OF ID
 Job cpu time:       0 days  8 hours 11 minutes 54.0 seconds.
 File lengths (MBytes):  RWF=    315 Int=      0 D2E=      0 Chk=     35 Scr=      1
 Normal termination of Gaussian 09 at Sat Jul 06 19:57:17 2019.
