 Entering Link 1 = C:\G09W\l1.exe PID=      2088.
  
 Copyright (c) 1988,1990,1992,1993,1995,1998,2003,2009,2013,
            Gaussian, Inc.  All Rights Reserved.
  
 This is part of the Gaussian(R) 09 program.  It is based on
 the Gaussian(R) 03 system (copyright 2003, Gaussian, Inc.),
 the Gaussian(R) 98 system (copyright 1998, Gaussian, Inc.),
 the Gaussian(R) 94 system (copyright 1995, Gaussian, Inc.),
 the Gaussian 92(TM) system (copyright 1992, Gaussian, Inc.),
 the Gaussian 90(TM) system (copyright 1990, Gaussian, Inc.),
 the Gaussian 88(TM) system (copyright 1988, Gaussian, Inc.),
 the Gaussian 86(TM) system (copyright 1986, Carnegie Mellon
 University), and the Gaussian 82(TM) system (copyright 1983,
 Carnegie Mellon University). Gaussian is a federally registered
 trademark of Gaussian, Inc.
  
 This software contains proprietary and confidential information,
 including trade secrets, belonging to Gaussian, Inc.
  
 This software is provided under written license and may be
 used, copied, transmitted, or stored only in accord with that
 written license.
  
 The following legend is applicable only to US Government
 contracts under FAR:
  
                    RESTRICTED RIGHTS LEGEND
  
 Use, reproduction and disclosure by the US Government is
 subject to restrictions as set forth in subparagraphs (a)
 and (c) of the Commercial Computer Software - Restricted
 Rights clause in FAR 52.227-19.
  
 Gaussian, Inc.
 340 Quinnipiac St., Bldg. 40, Wallingford CT 06492
  
  
 ---------------------------------------------------------------
 Warning -- This program may not be used in any manner that
 competes with the business of Gaussian, Inc. or will provide
 assistance to any competitor of Gaussian, Inc.  The licensee
 of this program is prohibited from giving any competitor of
 Gaussian, Inc. access to this program.  By using this program,
 the user acknowledges that Gaussian, Inc. is engaged in the
 business of creating and licensing software in the field of
 computational chemistry and represents and warrants to the
 licensee that it is not a competitor of Gaussian, Inc. and that
 it will not use this program in any manner prohibited above.
 ---------------------------------------------------------------
  

 Cite this work as:
 Gaussian 09, Revision D.01,
 M. J. Frisch, G. W. Trucks, H. B. Schlegel, G. E. Scuseria, 
 M. A. Robb, J. R. Cheeseman, G. Scalmani, V. Barone, B. Mennucci, 
 G. A. Petersson, H. Nakatsuji, M. Caricato, X. Li, H. P. Hratchian, 
 A. F. Izmaylov, J. Bloino, G. Zheng, J. L. Sonnenberg, M. Hada, 
 M. Ehara, K. Toyota, R. Fukuda, J. Hasegawa, M. Ishida, T. Nakajima, 
 Y. Honda, O. Kitao, H. Nakai, T. Vreven, J. A. Montgomery, Jr., 
 J. E. Peralta, F. Ogliaro, M. Bearpark, J. J. Heyd, E. Brothers, 
 K. N. Kudin, V. N. Staroverov, T. Keith, R. Kobayashi, J. Normand, 
 K. Raghavachari, A. Rendell, J. C. Burant, S. S. Iyengar, J. Tomasi, 
 M. Cossi, N. Rega, J. M. Millam, M. Klene, J. E. Knox, J. B. Cross, 
 V. Bakken, C. Adamo, J. Jaramillo, R. Gomperts, R. E. Stratmann, 
 O. Yazyev, A. J. Austin, R. Cammi, C. Pomelli, J. W. Ochterski, 
 R. L. Martin, K. Morokuma, V. G. Zakrzewski, G. A. Voth, 
 P. Salvador, J. J. Dannenberg, S. Dapprich, A. D. Daniels, 
 O. Farkas, J. B. Foresman, J. V. Ortiz, J. Cioslowski, 
 and D. J. Fox, Gaussian, Inc., Wallingford CT, 2013.
 
 ******************************************
 Gaussian 09:  IA32W-G09RevD.01 24-Apr-2013
                06-Jul-2019 
 ******************************************
 %nprocshared=4
 Will use up to    4 processors via shared memory.
 %mem=1600MB
 ----------------------------------------------------
 #p opt b3lyp/6-311++g(d,p) pop=nbo geom=connectivity
 ----------------------------------------------------
 1/14=-1,18=20,19=15,26=3,38=1,57=2/1,3;
 2/9=110,12=2,17=6,18=5,40=1/2;
 3/5=4,6=6,7=1111,11=2,16=1,25=1,30=1,71=1,74=-5/1,2,3;
 4//1;
 5/5=2,38=5/2;
 6/7=2,8=2,9=2,10=2,28=1,40=1/1,7;
 7//1,2,3,16;
 1/14=-1,18=20,19=15,26=3/3(2);
 2/9=110/2;
 99//99;
 2/9=110/2;
 3/5=4,6=6,7=1111,11=2,16=1,25=1,30=1,71=1,74=-5/1,2,3;
 4/5=5,16=3,69=1/1;
 5/5=2,38=5/2;
 7//1,2,3,16;
 1/14=-1,18=20,19=15,26=3/3(-5);
 2/9=110/2;
 6/7=2,8=2,9=2,10=2,19=2,28=1,40=1/1,7;
 99/9=1/99;
 Leave Link    1 at Sat Jul 06 19:57:18 2019, MaxMem=   209715200 cpu:         1.0
 (Enter C:\G09W\l101.exe)
 ------
 9g.log
 ------
 Symbolic Z-matrix:
 Charge =  0 Multiplicity = 1
 C                     2.0363   -0.94674  -1.06535 
 C                     1.78132  -1.51256   0.17535 
 C                     2.53439  -1.1206    1.27375 
 C                     3.52881  -0.16913   1.1371 
 C                     3.75552   0.40361  -0.10164 
 C                     3.0142    0.02405  -1.20398 
 N                     0.79362  -2.51664   0.34144 
 C                    -0.49059  -2.45882  -0.07929 
 C                    -1.33779  -3.47207  -0.25539 
 C                    -1.24563  -1.17199  -0.35026 
 C                    -2.64706  -2.96029  -0.64685 
 O                    -2.52874  -1.61589  -0.73756 
 Cl                   -1.01142  -5.14454  -0.0395 
 O                    -3.65731  -3.52568  -0.87163 
 C                    -1.3625   -0.26239   0.88724 
 C                    -1.93347   1.10916   0.56982 
 O                    -2.05233  -0.93498   1.90001 
 Br                    5.10412   1.7214   -0.28941 
 C                    -1.21514   2.24954   0.92532 
 C                    -1.70379   3.51376   0.68195 
 C                    -2.94486   3.67564   0.07356 
 C                    -3.67745   2.55473  -0.28568 
 C                    -3.16749   1.28754  -0.03741 
 O                    -3.34301   4.94623  -0.12347 
 C                    -4.58381   5.20409  -0.71958 
 H                    -0.81396  -0.61853  -1.17321 
 H                    -0.36083  -0.11688   1.2677 
 H                     1.48593  -1.27382  -1.9288 
 H                     2.3333   -1.55685   2.23547 
 H                     4.11153   0.13176   1.98665 
 H                     3.20643   0.46517  -2.16327 
 H                     1.11568  -3.41839   0.61577 
 H                    -2.97874  -0.92675   1.7185 
 H                    -0.25597   2.14745   1.40339 
 H                    -1.14609   4.38971   0.957 
 H                    -4.63589   2.64489  -0.75884 
 H                    -3.74948   0.43676  -0.34041 
 H                    -4.6323    4.8011   -1.72635 
 H                    -5.39961   4.79748  -0.13021 
 H                    -4.68001   6.27888  -0.76356 
 
 NAtoms=     40 NQM=       40 NQMF=       0 NMMI=      0 NMMIF=      0
                NMic=       0 NMicF=      0.
                    Isotopes and Nuclear Properties:
 (Nuclear quadrupole moments (NQMom) in fm**2, nuclear magnetic moments (NMagM)
  in nuclear magnetons)

  Atom         1           2           3           4           5           6           7           8           9          10
 IAtWgt=          12          12          12          12          12          12          14          12          12          12
 AtmWgt=  12.0000000  12.0000000  12.0000000  12.0000000  12.0000000  12.0000000  14.0030740  12.0000000  12.0000000  12.0000000
 NucSpn=           0           0           0           0           0           0           2           0           0           0
 AtZEff=   0.0000000   0.0000000   0.0000000   0.0000000   0.0000000   0.0000000   0.0000000   0.0000000   0.0000000   0.0000000
 NQMom=    0.0000000   0.0000000   0.0000000   0.0000000   0.0000000   0.0000000   2.0440000   0.0000000   0.0000000   0.0000000
 NMagM=    0.0000000   0.0000000   0.0000000   0.0000000   0.0000000   0.0000000   0.4037610   0.0000000   0.0000000   0.0000000
 AtZNuc=   6.0000000   6.0000000   6.0000000   6.0000000   6.0000000   6.0000000   7.0000000   6.0000000   6.0000000   6.0000000

  Atom        11          12          13          14          15          16          17          18          19          20
 IAtWgt=          12          16          35          16          12          12          16          79          12          12
 AtmWgt=  12.0000000  15.9949146  34.9688527  15.9949146  12.0000000  12.0000000  15.9949146  78.9183361  12.0000000  12.0000000
 NucSpn=           0           0           3           0           0           0           0           3           0           0
 AtZEff=   0.0000000   0.0000000   0.0000000   0.0000000   0.0000000   0.0000000   0.0000000   0.0000000   0.0000000   0.0000000
 NQMom=    0.0000000   0.0000000  -8.1650000   0.0000000   0.0000000   0.0000000   0.0000000  31.3000000   0.0000000   0.0000000
 NMagM=    0.0000000   0.0000000   0.8218740   0.0000000   0.0000000   0.0000000   0.0000000   2.1063990   0.0000000   0.0000000
 AtZNuc=   6.0000000   8.0000000  17.0000000   8.0000000   6.0000000   6.0000000   8.0000000  35.0000000   6.0000000   6.0000000

  Atom        21          22          23          24          25          26          27          28          29          30
 IAtWgt=          12          12          12          16          12           1           1           1           1           1
 AtmWgt=  12.0000000  12.0000000  12.0000000  15.9949146  12.0000000   1.0078250   1.0078250   1.0078250   1.0078250   1.0078250
 NucSpn=           0           0           0           0           0           1           1           1           1           1
 AtZEff=   0.0000000   0.0000000   0.0000000   0.0000000   0.0000000   0.0000000   0.0000000   0.0000000   0.0000000   0.0000000
 NQMom=    0.0000000   0.0000000   0.0000000   0.0000000   0.0000000   0.0000000   0.0000000   0.0000000   0.0000000   0.0000000
 NMagM=    0.0000000   0.0000000   0.0000000   0.0000000   0.0000000   2.7928460   2.7928460   2.7928460   2.7928460   2.7928460
 AtZNuc=   6.0000000   6.0000000   6.0000000   8.0000000   6.0000000   1.0000000   1.0000000   1.0000000   1.0000000   1.0000000

  Atom        31          32          33          34          35          36          37          38          39          40
 IAtWgt=           1           1           1           1           1           1           1           1           1           1
 AtmWgt=   1.0078250   1.0078250   1.0078250   1.0078250   1.0078250   1.0078250   1.0078250   1.0078250   1.0078250   1.0078250
 NucSpn=           1           1           1           1           1           1           1           1           1           1
 AtZEff=   0.0000000   0.0000000   0.0000000   0.0000000   0.0000000   0.0000000   0.0000000   0.0000000   0.0000000   0.0000000
 NQMom=    0.0000000   0.0000000   0.0000000   0.0000000   0.0000000   0.0000000   0.0000000   0.0000000   0.0000000   0.0000000
 NMagM=    2.7928460   2.7928460   2.7928460   2.7928460   2.7928460   2.7928460   2.7928460   2.7928460   2.7928460   2.7928460
 AtZNuc=   1.0000000   1.0000000   1.0000000   1.0000000   1.0000000   1.0000000   1.0000000   1.0000000   1.0000000   1.0000000
 Leave Link  101 at Sat Jul 06 19:57:18 2019, MaxMem=   209715200 cpu:         0.0
 (Enter C:\G09W\l103.exe)

 GradGradGradGradGradGradGradGradGradGradGradGradGradGradGradGradGradGrad
 Berny optimization.
 Initialization pass.
                           ----------------------------
                           !    Initial Parameters    !
                           ! (Angstroms and Degrees)  !
 --------------------------                            --------------------------
 ! Name  Definition              Value          Derivative Info.                !
 --------------------------------------------------------------------------------
 ! R1    R(1,2)                  1.3873         estimate D2E/DX2                !
 ! R2    R(1,6)                  1.3849         estimate D2E/DX2                !
 ! R3    R(1,28)                 1.0749         estimate D2E/DX2                !
 ! R4    R(2,3)                  1.3882         estimate D2E/DX2                !
 ! R5    R(2,7)                  1.4182         estimate D2E/DX2                !
 ! R6    R(3,4)                  1.3831         estimate D2E/DX2                !
 ! R7    R(3,29)                 1.075          estimate D2E/DX2                !
 ! R8    R(4,5)                  1.3834         estimate D2E/DX2                !
 ! R9    R(4,30)                 1.0732         estimate D2E/DX2                !
 ! R10   R(5,6)                  1.3816         estimate D2E/DX2                !
 ! R11   R(5,18)                 1.8949         estimate D2E/DX2                !
 ! R12   R(6,31)                 1.0732         estimate D2E/DX2                !
 ! R13   R(7,8)                  1.3526         estimate D2E/DX2                !
 ! R14   R(7,32)                 0.996          estimate D2E/DX2                !
 ! R15   R(8,9)                  1.3325         estimate D2E/DX2                !
 ! R16   R(8,10)                 1.5164         estimate D2E/DX2                !
 ! R17   R(9,11)                 1.4592         estimate D2E/DX2                !
 ! R18   R(9,13)                 1.7176         estimate D2E/DX2                !
 ! R19   R(10,12)                1.4119         estimate D2E/DX2                !
 ! R20   R(10,15)                1.5403         estimate D2E/DX2                !
 ! R21   R(10,26)                1.0816         estimate D2E/DX2                !
 ! R22   R(11,12)                1.3526         estimate D2E/DX2                !
 ! R23   R(11,14)                1.1793         estimate D2E/DX2                !
 ! R24   R(15,16)                1.5192         estimate D2E/DX2                !
 ! R25   R(15,17)                1.3978         estimate D2E/DX2                !
 ! R26   R(15,27)                1.0813         estimate D2E/DX2                !
 ! R27   R(16,19)                1.3939         estimate D2E/DX2                !
 ! R28   R(16,23)                1.3869         estimate D2E/DX2                !
 ! R29   R(17,33)                0.9441         estimate D2E/DX2                !
 ! R30   R(19,20)                1.3771         estimate D2E/DX2                !
 ! R31   R(19,34)                1.0766         estimate D2E/DX2                !
 ! R32   R(20,21)                1.3916         estimate D2E/DX2                !
 ! R33   R(20,35)                1.0742         estimate D2E/DX2                !
 ! R34   R(21,22)                1.3864         estimate D2E/DX2                !
 ! R35   R(21,24)                1.346          estimate D2E/DX2                !
 ! R36   R(22,23)                1.3883         estimate D2E/DX2                !
 ! R37   R(22,36)                1.0727         estimate D2E/DX2                !
 ! R38   R(23,37)                1.0744         estimate D2E/DX2                !
 ! R39   R(24,25)                1.4005         estimate D2E/DX2                !
 ! R40   R(25,38)                1.0855         estimate D2E/DX2                !
 ! R41   R(25,39)                1.0855         estimate D2E/DX2                !
 ! R42   R(25,40)                1.08           estimate D2E/DX2                !
 ! A1    A(2,1,6)              120.3455         estimate D2E/DX2                !
 ! A2    A(2,1,28)             120.0131         estimate D2E/DX2                !
 ! A3    A(6,1,28)             119.6324         estimate D2E/DX2                !
 ! A4    A(1,2,3)              119.5224         estimate D2E/DX2                !
 ! A5    A(1,2,7)              121.4335         estimate D2E/DX2                !
 ! A6    A(3,2,7)              119.0143         estimate D2E/DX2                !
 ! A7    A(2,3,4)              120.4041         estimate D2E/DX2                !
 ! A8    A(2,3,29)             119.458          estimate D2E/DX2                !
 ! A9    A(4,3,29)             120.1359         estimate D2E/DX2                !
 ! A10   A(3,4,5)              119.4132         estimate D2E/DX2                !
 ! A11   A(3,4,30)             120.3343         estimate D2E/DX2                !
 ! A12   A(5,4,30)             120.248          estimate D2E/DX2                !
 ! A13   A(4,5,6)              120.8477         estimate D2E/DX2                !
 ! A14   A(4,5,18)             119.5562         estimate D2E/DX2                !
 ! A15   A(6,5,18)             119.5958         estimate D2E/DX2                !
 ! A16   A(1,6,5)              119.4456         estimate D2E/DX2                !
 ! A17   A(1,6,31)             120.2701         estimate D2E/DX2                !
 ! A18   A(5,6,31)             120.2754         estimate D2E/DX2                !
 ! A19   A(2,7,8)              126.4788         estimate D2E/DX2                !
 ! A20   A(2,7,32)             116.6174         estimate D2E/DX2                !
 ! A21   A(8,7,32)             115.5535         estimate D2E/DX2                !
 ! A22   A(7,8,9)              127.7536         estimate D2E/DX2                !
 ! A23   A(7,8,10)             124.3749         estimate D2E/DX2                !
 ! A24   A(9,8,10)             107.7647         estimate D2E/DX2                !
 ! A25   A(8,9,11)             109.8302         estimate D2E/DX2                !
 ! A26   A(8,9,13)             127.086          estimate D2E/DX2                !
 ! A27   A(11,9,13)            123.0727         estimate D2E/DX2                !
 ! A28   A(8,10,12)            103.5753         estimate D2E/DX2                !
 ! A29   A(8,10,15)            113.2885         estimate D2E/DX2                !
 ! A30   A(8,10,26)            111.8061         estimate D2E/DX2                !
 ! A31   A(12,10,15)           109.7006         estimate D2E/DX2                !
 ! A32   A(12,10,26)           108.3523         estimate D2E/DX2                !
 ! A33   A(15,10,26)           109.8396         estimate D2E/DX2                !
 ! A34   A(9,11,12)            106.7434         estimate D2E/DX2                !
 ! A35   A(9,11,14)            130.6613         estimate D2E/DX2                !
 ! A36   A(12,11,14)           122.5925         estimate D2E/DX2                !
 ! A37   A(10,12,11)           111.937          estimate D2E/DX2                !
 ! A38   A(10,15,16)           113.1915         estimate D2E/DX2                !
 ! A39   A(10,15,17)           109.5972         estimate D2E/DX2                !
 ! A40   A(10,15,27)           106.9696         estimate D2E/DX2                !
 ! A41   A(16,15,17)           113.5977         estimate D2E/DX2                !
 ! A42   A(16,15,27)           107.4682         estimate D2E/DX2                !
 ! A43   A(17,15,27)           105.4841         estimate D2E/DX2                !
 ! A44   A(15,16,19)           119.45           estimate D2E/DX2                !
 ! A45   A(15,16,23)           122.8221         estimate D2E/DX2                !
 ! A46   A(19,16,23)           117.7099         estimate D2E/DX2                !
 ! A47   A(15,17,33)           109.9241         estimate D2E/DX2                !
 ! A48   A(16,19,20)           121.5447         estimate D2E/DX2                !
 ! A49   A(16,19,34)           119.6583         estimate D2E/DX2                !
 ! A50   A(20,19,34)           118.7968         estimate D2E/DX2                !
 ! A51   A(19,20,21)           120.0346         estimate D2E/DX2                !
 ! A52   A(19,20,35)           121.2737         estimate D2E/DX2                !
 ! A53   A(21,20,35)           118.6912         estimate D2E/DX2                !
 ! A54   A(20,21,22)           119.3715         estimate D2E/DX2                !
 ! A55   A(20,21,24)           115.9509         estimate D2E/DX2                !
 ! A56   A(22,21,24)           124.6776         estimate D2E/DX2                !
 ! A57   A(21,22,23)           119.8356         estimate D2E/DX2                !
 ! A58   A(21,22,36)           121.2296         estimate D2E/DX2                !
 ! A59   A(23,22,36)           118.9344         estimate D2E/DX2                !
 ! A60   A(16,23,22)           121.503          estimate D2E/DX2                !
 ! A61   A(16,23,37)           120.2396         estimate D2E/DX2                !
 ! A62   A(22,23,37)           118.2527         estimate D2E/DX2                !
 ! A63   A(21,24,25)           119.8793         estimate D2E/DX2                !
 ! A64   A(24,25,38)           111.4685         estimate D2E/DX2                !
 ! A65   A(24,25,39)           111.4559         estimate D2E/DX2                !
 ! A66   A(24,25,40)           106.2292         estimate D2E/DX2                !
 ! A67   A(38,25,39)           109.326          estimate D2E/DX2                !
 ! A68   A(38,25,40)           109.1304         estimate D2E/DX2                !
 ! A69   A(39,25,40)           109.1448         estimate D2E/DX2                !
 ! D1    D(6,1,2,3)             -1.4415         estimate D2E/DX2                !
 ! D2    D(6,1,2,7)           -179.4347         estimate D2E/DX2                !
 ! D3    D(28,1,2,3)           177.4599         estimate D2E/DX2                !
 ! D4    D(28,1,2,7)            -0.5333         estimate D2E/DX2                !
 ! D5    D(2,1,6,5)              1.4519         estimate D2E/DX2                !
 ! D6    D(2,1,6,31)          -179.6338         estimate D2E/DX2                !
 ! D7    D(28,1,6,5)          -177.4536         estimate D2E/DX2                !
 ! D8    D(28,1,6,31)            1.4606         estimate D2E/DX2                !
 ! D9    D(1,2,3,4)              0.2656         estimate D2E/DX2                !
 ! D10   D(1,2,3,29)           179.7565         estimate D2E/DX2                !
 ! D11   D(7,2,3,4)            178.3076         estimate D2E/DX2                !
 ! D12   D(7,2,3,29)            -2.2015         estimate D2E/DX2                !
 ! D13   D(1,2,7,8)            -51.0624         estimate D2E/DX2                !
 ! D14   D(1,2,7,32)           115.0083         estimate D2E/DX2                !
 ! D15   D(3,2,7,8)            130.9344         estimate D2E/DX2                !
 ! D16   D(3,2,7,32)           -62.9948         estimate D2E/DX2                !
 ! D17   D(2,3,4,5)              0.8819         estimate D2E/DX2                !
 ! D18   D(2,3,4,30)          -179.8882         estimate D2E/DX2                !
 ! D19   D(29,3,4,5)          -178.6055         estimate D2E/DX2                !
 ! D20   D(29,3,4,30)            0.6244         estimate D2E/DX2                !
 ! D21   D(3,4,5,6)             -0.8742         estimate D2E/DX2                !
 ! D22   D(3,4,5,18)           179.3306         estimate D2E/DX2                !
 ! D23   D(30,4,5,6)           179.8952         estimate D2E/DX2                !
 ! D24   D(30,4,5,18)            0.1001         estimate D2E/DX2                !
 ! D25   D(4,5,6,1)             -0.2877         estimate D2E/DX2                !
 ! D26   D(4,5,6,31)          -179.2019         estimate D2E/DX2                !
 ! D27   D(18,5,6,1)           179.5074         estimate D2E/DX2                !
 ! D28   D(18,5,6,31)            0.5932         estimate D2E/DX2                !
 ! D29   D(2,7,8,9)            161.1677         estimate D2E/DX2                !
 ! D30   D(2,7,8,10)           -23.0578         estimate D2E/DX2                !
 ! D31   D(32,7,8,9)            -5.0316         estimate D2E/DX2                !
 ! D32   D(32,7,8,10)          170.7429         estimate D2E/DX2                !
 ! D33   D(7,8,9,11)           176.7873         estimate D2E/DX2                !
 ! D34   D(7,8,9,13)            -2.0222         estimate D2E/DX2                !
 ! D35   D(10,8,9,11)            0.4486         estimate D2E/DX2                !
 ! D36   D(10,8,9,13)         -178.3609         estimate D2E/DX2                !
 ! D37   D(7,8,10,12)         -179.0623         estimate D2E/DX2                !
 ! D38   D(7,8,10,15)          -60.2794         estimate D2E/DX2                !
 ! D39   D(7,8,10,26)           64.4835         estimate D2E/DX2                !
 ! D40   D(9,8,10,12)           -2.5694         estimate D2E/DX2                !
 ! D41   D(9,8,10,15)          116.2134         estimate D2E/DX2                !
 ! D42   D(9,8,10,26)         -119.0236         estimate D2E/DX2                !
 ! D43   D(8,9,11,12)            1.9676         estimate D2E/DX2                !
 ! D44   D(8,9,11,14)         -178.6362         estimate D2E/DX2                !
 ! D45   D(13,9,11,12)        -179.1658         estimate D2E/DX2                !
 ! D46   D(13,9,11,14)           0.2305         estimate D2E/DX2                !
 ! D47   D(8,10,12,11)           3.9329         estimate D2E/DX2                !
 ! D48   D(15,10,12,11)       -117.297          estimate D2E/DX2                !
 ! D49   D(26,10,12,11)        122.7964         estimate D2E/DX2                !
 ! D50   D(8,10,15,16)         171.4523         estimate D2E/DX2                !
 ! D51   D(8,10,15,17)         -60.6094         estimate D2E/DX2                !
 ! D52   D(8,10,15,27)          53.2773         estimate D2E/DX2                !
 ! D53   D(12,10,15,16)        -73.3621         estimate D2E/DX2                !
 ! D54   D(12,10,15,17)         54.5762         estimate D2E/DX2                !
 ! D55   D(12,10,15,27)        168.463          estimate D2E/DX2                !
 ! D56   D(26,10,15,16)         45.6326         estimate D2E/DX2                !
 ! D57   D(26,10,15,17)        173.5709         estimate D2E/DX2                !
 ! D58   D(26,10,15,27)        -72.5423         estimate D2E/DX2                !
 ! D59   D(9,11,12,10)          -3.7693         estimate D2E/DX2                !
 ! D60   D(14,11,12,10)        176.7743         estimate D2E/DX2                !
 ! D61   D(10,15,16,19)       -124.6727         estimate D2E/DX2                !
 ! D62   D(10,15,16,23)         56.9069         estimate D2E/DX2                !
 ! D63   D(17,15,16,19)        109.5002         estimate D2E/DX2                !
 ! D64   D(17,15,16,23)        -68.9202         estimate D2E/DX2                !
 ! D65   D(27,15,16,19)         -6.788          estimate D2E/DX2                !
 ! D66   D(27,15,16,23)        174.7916         estimate D2E/DX2                !
 ! D67   D(10,15,17,33)        -77.6673         estimate D2E/DX2                !
 ! D68   D(16,15,17,33)         50.0447         estimate D2E/DX2                !
 ! D69   D(27,15,17,33)        167.4913         estimate D2E/DX2                !
 ! D70   D(15,16,19,20)       -178.7147         estimate D2E/DX2                !
 ! D71   D(15,16,19,34)          1.1684         estimate D2E/DX2                !
 ! D72   D(23,16,19,20)         -0.2141         estimate D2E/DX2                !
 ! D73   D(23,16,19,34)        179.6691         estimate D2E/DX2                !
 ! D74   D(15,16,23,22)        178.4155         estimate D2E/DX2                !
 ! D75   D(15,16,23,37)         -2.3895         estimate D2E/DX2                !
 ! D76   D(19,16,23,22)         -0.0309         estimate D2E/DX2                !
 ! D77   D(19,16,23,37)        179.1642         estimate D2E/DX2                !
 ! D78   D(16,19,20,21)          0.3173         estimate D2E/DX2                !
 ! D79   D(16,19,20,35)       -179.946          estimate D2E/DX2                !
 ! D80   D(34,19,20,21)       -179.5668         estimate D2E/DX2                !
 ! D81   D(34,19,20,35)          0.1698         estimate D2E/DX2                !
 ! D82   D(19,20,21,22)         -0.1707         estimate D2E/DX2                !
 ! D83   D(19,20,21,24)        179.9134         estimate D2E/DX2                !
 ! D84   D(35,20,21,22)       -179.9141         estimate D2E/DX2                !
 ! D85   D(35,20,21,24)          0.17           estimate D2E/DX2                !
 ! D86   D(20,21,22,23)         -0.0685         estimate D2E/DX2                !
 ! D87   D(20,21,22,36)       -179.8131         estimate D2E/DX2                !
 ! D88   D(24,21,22,23)        179.8396         estimate D2E/DX2                !
 ! D89   D(24,21,22,36)          0.095          estimate D2E/DX2                !
 ! D90   D(20,21,24,25)       -179.4796         estimate D2E/DX2                !
 ! D91   D(22,21,24,25)          0.6095         estimate D2E/DX2                !
 ! D92   D(21,22,23,16)          0.1706         estimate D2E/DX2                !
 ! D93   D(21,22,23,37)       -179.04           estimate D2E/DX2                !
 ! D94   D(36,22,23,16)        179.921          estimate D2E/DX2                !
 ! D95   D(36,22,23,37)          0.7104         estimate D2E/DX2                !
 ! D96   D(21,24,25,38)        -61.5997         estimate D2E/DX2                !
 ! D97   D(21,24,25,39)         60.8568         estimate D2E/DX2                !
 ! D98   D(21,24,25,40)        179.6338         estimate D2E/DX2                !
 --------------------------------------------------------------------------------
 Trust Radius=3.00D-01 FncErr=1.00D-07 GrdErr=1.00D-06
 Number of steps in this run=    219 maximum allowed number of steps=    240.
 GradGradGradGradGradGradGradGradGradGradGradGradGradGradGradGradGradGrad

 Leave Link  103 at Sat Jul 06 19:57:18 2019, MaxMem=   209715200 cpu:         0.0
 (Enter C:\G09W\l202.exe)
                          Input orientation:                          
 ---------------------------------------------------------------------
 Center     Atomic      Atomic             Coordinates (Angstroms)
 Number     Number       Type             X           Y           Z
 ---------------------------------------------------------------------
      1          6           0        2.036295   -0.946744   -1.065350
      2          6           0        1.781320   -1.512560    0.175353
      3          6           0        2.534385   -1.120602    1.273745
      4          6           0        3.528814   -0.169133    1.137095
      5          6           0        3.755520    0.403613   -0.101637
      6          6           0        3.014204    0.024046   -1.203979
      7          7           0        0.793619   -2.516643    0.341444
      8          6           0       -0.490585   -2.458818   -0.079294
      9          6           0       -1.337791   -3.472068   -0.255389
     10          6           0       -1.245633   -1.171991   -0.350255
     11          6           0       -2.647064   -2.960285   -0.646852
     12          8           0       -2.528741   -1.615887   -0.737555
     13         17           0       -1.011416   -5.144538   -0.039495
     14          8           0       -3.657306   -3.525682   -0.871630
     15          6           0       -1.362500   -0.262394    0.887238
     16          6           0       -1.933466    1.109157    0.569817
     17          8           0       -2.052330   -0.934977    1.900014
     18         35           0        5.104119    1.721401   -0.289409
     19          6           0       -1.215144    2.249541    0.925324
     20          6           0       -1.703792    3.513764    0.681946
     21          6           0       -2.944861    3.675641    0.073564
     22          6           0       -3.677453    2.554725   -0.285677
     23          6           0       -3.167491    1.287543   -0.037410
     24          8           0       -3.343008    4.946231   -0.123470
     25          6           0       -4.583808    5.204091   -0.719584
     26          1           0       -0.813963   -0.618528   -1.173207
     27          1           0       -0.360828   -0.116883    1.267696
     28          1           0        1.485926   -1.273824   -1.928800
     29          1           0        2.333297   -1.556846    2.235472
     30          1           0        4.111526    0.131755    1.986648
     31          1           0        3.206433    0.465167   -2.163268
     32          1           0        1.115675   -3.418386    0.615765
     33          1           0       -2.978744   -0.926753    1.718500
     34          1           0       -0.255974    2.147448    1.403386
     35          1           0       -1.146092    4.389706    0.957001
     36          1           0       -4.635885    2.644889   -0.758844
     37          1           0       -3.749476    0.436764   -0.340414
     38          1           0       -4.632301    4.801097   -1.726354
     39          1           0       -5.399615    4.797481   -0.130206
     40          1           0       -4.680006    6.278884   -0.763559
 ---------------------------------------------------------------------
                    Distance matrix (angstroms):
                    1          2          3          4          5
     1  C    0.000000
     2  C    1.387265   0.000000
     3  C    2.397850   1.388237   0.000000
     4  C    2.771833   2.404886   1.383060   0.000000
     5  C    2.389130   2.765124   2.388740   1.383434   0.000000
     6  C    1.384903   2.404936   2.771202   2.404739   1.381585
     7  N    2.447018   1.418211   2.418343   3.691227   4.182950
     8  C    3.105446   2.474227   3.573791   4.783077   5.120881
     9  C    4.291591   3.708647   4.781359   6.044190   6.402059
    10  C    3.366474   3.091067   4.114432   5.100321   5.249369
    11  C    5.115011   4.731016   5.824134   7.008171   7.253010
    12  O    4.625447   4.406893   5.470455   6.503951   6.631343
    13  Cl   5.287948   4.586589   5.521718   6.837595   7.315020
    14  O    6.253442   5.893003   6.980264   8.181792   8.425096
    15  C    3.979038   3.457354   4.008943   4.898579   5.255052
    16  C    4.760200   4.563840   5.042721   5.638469   5.771759
    17  O    5.050780   4.243222   4.632993   5.684869   6.287253
    18  Br   4.139158   4.659989   4.138111   2.844401   1.894873
    19  C    4.975025   4.867716   5.053536   5.329162   5.400889
    20  C    6.077617   6.137310   6.307909   6.414909   6.331756
    21  C    6.890246   7.018873   7.380143   7.604068   7.458684
    22  C    6.746487   6.823017   7.384224   7.834154   7.740171
    23  C    5.755700   5.690042   6.326901   6.952832   6.979508
    24  O    8.034376   8.250092   8.561683   8.658979   8.427630
    25  C    9.043124   9.296729   9.728503   9.906232   9.642139
    26  H    2.871120   3.058333   4.177450   4.939551   4.803458
    27  H    3.446443   2.780274   3.064269   3.892185   4.369246
    28  H    1.074911   2.138156   3.373283   3.846225   3.362049
    29  H    3.369846   2.133244   1.075018   2.135753   3.365739
    30  H    3.845053   3.378524   2.136353   1.073232   2.135786
    31  H    2.137321   3.378091   3.844395   3.376190   2.134387
    32  H    3.127731   2.066209   2.779476   4.080768   4.700120
    33  H    5.735925   5.038123   5.534435   6.577259   7.101625
    34  H    4.574186   4.365122   4.299193   4.445456   4.625812
    35  H    6.534156   6.634565   6.633983   6.532243   6.405892
    36  H    7.583651   7.703092   8.350037   8.841697   8.710391
    37  H    5.992894   5.886899   6.672167   7.451419   7.508867
    38  H    8.828634   9.198548   9.768751   9.975286   9.609012
    39  H    9.442636   9.564299   9.997157  10.295152  10.154969
    40  H    9.869624  10.165475  10.533301  10.610096  10.301216
                    6          7          8          9         10
     6  C    0.000000
     7  N    3.711392   0.000000
     8  C    4.439941   1.352606   0.000000
     9  C    5.662376   2.410800   1.332458   0.000000
    10  C    4.506169   2.538717   1.516391   2.303876   0.000000
    11  C    6.423907   3.607194   2.285606   1.459233   2.291282
    12  O    5.799239   3.607447   2.301721   2.257488   1.411882
    13  Cl   6.654014   3.210778   2.736045   1.717640   3.991561
    14  O    7.564395   4.722334   3.434256   2.400579   3.409965
    15  C    4.859092   3.166762   2.553174   3.407083   1.540264
    16  C    5.366867   4.542639   3.903037   4.692911   2.554072
    17  O    6.018660   3.609741   2.945980   3.404873   2.402217
    18  Br   2.843448   6.077779   6.987066   8.274750   6.978164
    19  C    5.232031   5.205051   4.868561   5.843452   3.651700
    20  C    6.163954   6.535963   6.141913   7.057932   4.819922
    21  C    7.104697   7.238258   6.608965   7.333528   5.154273
    22  C    7.212897   6.789885   5.944269   6.465073   4.450430
    23  C    6.416437   5.505066   4.604650   5.103843   3.136992
    24  O    8.112309   8.545310   7.935554   8.654828   6.471712
    25  C    9.208544   9.468486   8.711178   9.275119   7.206541
    26  H    3.881844   2.912272   2.165153   3.042939   1.081624
    27  H    4.185675   2.819493   2.704788   3.812022   2.124594
    28  H    2.132010   2.679160   2.954908   3.950438   3.156515
    29  H    3.846125   2.622815   3.761117   4.832117   4.432024
    30  H    3.375769   4.552935   5.670856   6.907194   5.988324
    31  H    1.073208   4.581096   5.153696   6.308074   5.078208
    32  H    4.331999   0.996048   1.995983   2.604090   3.399303
    33  H    6.735008   4.319115   3.430776   3.614913   2.709901
    34  H    4.690549   4.897255   4.844695   5.958257   3.882442
    35  H    6.406004   7.199934   6.957433   7.957018   5.714132
    36  H    8.098816   7.571761   6.610078   6.967643   5.121457
    37  H    6.831065   5.461433   4.367259   4.593737   2.976142
    38  H    9.031175   9.341612   8.518978   9.025674   7.002924
    39  H    9.732986   9.595572   8.760996   9.214094   7.275891
    40  H    9.925615  10.418392   9.714263  10.320354   8.214699
                   11         12         13         14         15
    11  C    0.000000
    12  O    1.352639   0.000000
    13  Cl   2.795566   3.903965   0.000000
    14  O    1.179317   2.222375   3.211523   0.000000
    15  C    3.358892   2.414956   4.981709   4.359908   0.000000
    16  C    4.306955   3.080493   6.350601   5.150837   1.519181
    17  O    3.307886   2.765389   4.750326   4.119431   1.397837
    18  Br   9.062383   8.342594   9.198008  10.229048   6.865647
    19  C    5.627115   4.408201   7.459543   6.522760   2.516542
    20  C    6.675985   5.385986   8.715851   7.468843   3.797103
    21  C    6.681556   5.369482   9.030313   7.297946   4.321348
    22  C    5.622053   4.349453   8.151504   6.108608   3.830261
    23  C    4.322766   3.054196   6.783829   4.909478   2.552503
    24  O    7.954323   6.640898  10.356978   8.510690   5.663366
    25  C    8.391263   7.122901  10.968985   8.780117   6.545316
    26  H    3.020122   2.031005   4.670017   4.077633   2.161749
    27  H    4.120352   3.311781   5.235392   5.202249   1.081327
    28  H    4.644260   4.201621   4.978817   5.713257   4.131173
    29  H    5.922958   5.699280   5.406858   7.029774   4.141528
    30  H    7.885085   7.387062   7.628175   9.049936   5.597233
    31  H    6.949580   6.265434   7.332766   8.044011   5.541668
    32  H    3.995280   4.285119   2.816644   5.000520   4.021857
    33  H    3.136902   2.590292   4.975001   3.731441   1.935101
    34  H    6.000810   4.889968   7.471657   6.994938   2.701508
    35  H    7.671221   6.391431   9.587124   8.503144   4.657653
    36  H    5.948607   4.753390   8.621451   6.248703   4.677278
    37  H    3.584572   2.421010   6.224023   3.998958   2.773735
    38  H    8.083659   6.824981  10.717834   8.427124   6.569734
    39  H    8.247811   7.052806  10.867762   8.535830   6.552543
    40  H    9.460905   8.182666  12.019875   9.858352   7.517932
                   16         17         18         19         20
    16  C    0.000000
    17  O    2.441728   0.000000
    18  Br   7.116229   7.941327   0.000000
    19  C    1.393861   3.433956   6.456593   0.000000
    20  C    2.418152   4.625631   7.106599   1.377051   0.000000
    21  C    2.802861   5.038882   8.290771   2.398161   1.391612
    22  C    2.421369   4.426770   8.821023   2.760910   2.398205
    23  C    1.386854   3.152268   8.286813   2.379907   2.759701
    24  O    4.146154   6.352082   9.043286   3.591645   2.321139
    25  C    5.045330   7.138545  10.303888   4.773153   3.621600
    26  H    2.697465   3.328420   6.424956   3.576395   4.616192
    27  H    2.112676   1.982494   5.972396   2.539102   3.915131
    28  H    4.859416   5.224355   4.974967   5.277869   6.317539
    29  H    5.299740   4.442182   4.979898   5.366237   6.665029
    30  H    6.285273   6.256081   2.948330   5.829652   6.852602
    31  H    5.856880   6.791557   2.947997   5.680998   6.442010
    32  H    5.458756   4.225266   6.568442   6.136281   7.483881
    33  H    2.560666   0.944065   8.739399   3.718636   4.734780
    34  H    2.141697   3.602066   5.637168   1.076556   2.117421
    35  H    3.395861   5.482954   6.909307   2.141513   1.074225
    36  H    3.380367   5.153613   9.794941   3.833300   3.380531
    37  H    2.139749   3.127538   8.946454   3.363197   3.833793
    38  H    5.117278   7.260120  10.312478   5.021832   4.004160
    39  H    5.109594   6.941699  10.946051   5.011581   3.995826
    40  H    6.003953   8.126444  10.803915   5.576128   4.311986
                   21         22         23         24         25
    21  C    0.000000
    22  C    1.386433   0.000000
    23  C    2.401019   1.388326   0.000000
    24  O    1.346010   2.420220   3.663906   0.000000
    25  C    2.377265   2.833530   4.220268   1.400510   0.000000
    26  H    4.953287   4.365412   3.234538   6.201980   6.951287
    27  H    4.741984   4.533261   3.398981   6.038532   7.077825
    28  H    6.938194   6.634616   5.638461   8.078793   8.959200
    29  H    7.740266   7.706512   6.596606   8.948467  10.113801
    30  H    8.124753   8.467729   7.643085   9.121505  10.424064
    31  H    7.290335   7.435018   6.769231   8.193649   9.231981
    32  H    8.191896   7.711338   6.396711   9.507531  10.421822
    33  H    4.887637   4.077451   2.832305   6.165832   6.790267
    34  H    3.366588   3.837359   3.360396   4.437821   5.707908
    35  H    2.127421   3.364401   3.833839   2.510693   3.910505
    36  H    2.148235   1.072664   2.125802   2.715033   2.560033
    37  H    3.362902   2.119892   1.074403   4.532943   4.854615
    38  H    2.711791   2.834338   4.164524   2.062178   1.085514
    39  H    2.706633   2.831955   4.160607   2.061990   1.085467
    40  H    3.238576   3.886238   5.265784   1.993299   1.079985
                   26         27         28         29         30
    26  H    0.000000
    27  H    2.532782   0.000000
    28  H    2.507952   3.868669   0.000000
    29  H    4.733369   3.204433   4.259026   0.000000
    30  H    5.899835   4.536592   4.919366   2.464830   0.000000
    31  H    4.279977   4.983538   2.457480   4.919331   4.260535
    32  H    3.842282   3.674915   3.348290   2.751615   4.843340
    33  H    3.625362   2.777156   5.775512   5.374203   7.173860
    34  H    3.821100   2.270815   5.083580   4.595485   4.845438
    35  H    5.452569   4.585032   6.879748   7.007290   6.843454
    36  H    5.042685   5.478171   7.362179   8.671217   9.506354
    37  H    3.228687   3.791501   5.732235   6.899985   8.203877
    38  H    6.652670   7.169124   8.624288  10.229324  10.585067
    39  H    7.172810   7.175965   9.354483  10.284543  10.803327
    40  H    7.917600   7.980422   9.819364  10.935231  11.074379
                   31         32         33         34         35
    31  H    0.000000
    32  H    5.213087   0.000000
    33  H    7.433840   4.918183   0.000000
    34  H    5.247795   5.786214   4.118675   0.000000
    35  H    6.639470   8.136236   5.674789   2.453424   0.000000
    36  H    8.259876   8.469551   4.651879   4.909817   4.262296
    37  H    7.190847   6.280617   2.586954   4.262843   4.907815
    38  H    8.968664  10.299740   6.885458   5.999114   4.418517
    39  H    9.847149  10.512181   6.484226   5.985952   4.409167
    40  H    9.897192  11.381103   7.808720   6.429345   4.360948
                   36         37         38         39         40
    36  H    0.000000
    37  H    2.415910   0.000000
    38  H    2.363328   4.663434   0.000000
    39  H    2.368992   4.667226   1.771009   0.000000
    40  H    3.634266   5.930877   1.764399   1.764519   0.000000
 Stoichiometry    C18H15BrClNO4
 Framework group  C1[X(C18H15BrClNO4)]
 Deg. of freedom   114
 Full point group                 C1      NOp   1
 Largest Abelian subgroup         C1      NOp   1
 Largest concise Abelian subgroup C1      NOp   1
                         Standard orientation:                         
 ---------------------------------------------------------------------
 Center     Atomic      Atomic             Coordinates (Angstroms)
 Number     Number       Type             X           Y           Z
 ---------------------------------------------------------------------
      1          6           0       -2.036295    0.946744   -1.065350
      2          6           0       -1.781320    1.512560    0.175353
      3          6           0       -2.534385    1.120602    1.273745
      4          6           0       -3.528814    0.169133    1.137095
      5          6           0       -3.755520   -0.403613   -0.101637
      6          6           0       -3.014204   -0.024046   -1.203979
      7          7           0       -0.793619    2.516643    0.341444
      8          6           0        0.490585    2.458818   -0.079294
      9          6           0        1.337791    3.472068   -0.255389
     10          6           0        1.245633    1.171991   -0.350255
     11          6           0        2.647064    2.960285   -0.646852
     12          8           0        2.528741    1.615887   -0.737555
     13         17           0        1.011416    5.144538   -0.039495
     14          8           0        3.657306    3.525682   -0.871630
     15          6           0        1.362500    0.262394    0.887238
     16          6           0        1.933466   -1.109157    0.569817
     17          8           0        2.052330    0.934977    1.900014
     18         35           0       -5.104119   -1.721401   -0.289409
     19          6           0        1.215144   -2.249541    0.925324
     20          6           0        1.703792   -3.513764    0.681946
     21          6           0        2.944861   -3.675641    0.073564
     22          6           0        3.677453   -2.554725   -0.285677
     23          6           0        3.167491   -1.287543   -0.037410
     24          8           0        3.343008   -4.946231   -0.123470
     25          6           0        4.583808   -5.204091   -0.719584
     26          1           0        0.813963    0.618528   -1.173207
     27          1           0        0.360828    0.116883    1.267696
     28          1           0       -1.485926    1.273824   -1.928800
     29          1           0       -2.333297    1.556846    2.235472
     30          1           0       -4.111526   -0.131755    1.986648
     31          1           0       -3.206433   -0.465167   -2.163268
     32          1           0       -1.115675    3.418386    0.615765
     33          1           0        2.978744    0.926753    1.718500
     34          1           0        0.255974   -2.147448    1.403386
     35          1           0        1.146092   -4.389706    0.957001
     36          1           0        4.635885   -2.644889   -0.758844
     37          1           0        3.749476   -0.436764   -0.340414
     38          1           0        4.632301   -4.801097   -1.726354
     39          1           0        5.399615   -4.797481   -0.130206
     40          1           0        4.680007   -6.278884   -0.763559
 ---------------------------------------------------------------------
 Rotational constants (GHZ):      0.1473499      0.1111061      0.0671876
 Leave Link  202 at Sat Jul 06 19:57:18 2019, MaxMem=   209715200 cpu:         0.0
 (Enter C:\G09W\l301.exe)
 Standard basis: 6-311++G(d,p) (5D, 7F)
 Ernie: Thresh=  0.10000D-02 Tol=  0.10000D-05 Strict=F.
 There are   716 symmetry adapted cartesian basis functions of A   symmetry.
 There are   689 symmetry adapted basis functions of A   symmetry.
   689 basis functions,  1110 primitive gaussians,   716 cartesian basis functions
   107 alpha electrons      107 beta electrons
       nuclear repulsion energy      2681.8850379700 Hartrees.
 IExCor=  402 DFT=T Ex+Corr=B3LYP ExCW=0 ScaHFX=  0.200000
 ScaDFX=  0.800000  0.720000  1.000000  0.810000 ScalE2=  1.000000  1.000000
 IRadAn=      0 IRanWt=     -1 IRanGd=            0 ICorTp=0 IEmpDi=  4
 NAtoms=   40 NActive=   40 NUniq=   40 SFac= 1.00D+00 NAtFMM=   60 NAOKFM=F Big=F
 Integral buffers will be    262144 words long.
 Raffenetti 2 integral format.
 Two-electron integral symmetry is turned on.
 Leave Link  301 at Sat Jul 06 19:57:18 2019, MaxMem=   209715200 cpu:         0.0
 (Enter C:\G09W\l302.exe)
 NPDir=0 NMtPBC=     1 NCelOv=     1 NCel=       1 NClECP=     1 NCelD=      1
         NCelK=      1 NCelE2=     1 NClLst=     1 CellRange=     0.0.
 One-electron integrals computed using PRISM.
 NBasis=   689 RedAO= T EigKep=  1.24D-06  NBF=   689
 NBsUse=   684 1.00D-06 EigRej=  8.63D-07 NBFU=   684
 Precomputing XC quadrature grid using
 IXCGrd= 4 IRadAn=           0 IRanWt=          -1 IRanGd=           0 AccXCQ= 0.00D+00.
 Generated NRdTot=       0 NPtTot=           0 NUsed=           0 NTot=          16
 NSgBfM=   684   684   684   684   684 MxSgAt=    40 MxSgA2=    40.
 Leave Link  302 at Sat Jul 06 19:57:20 2019, MaxMem=   209715200 cpu:         2.0
 (Enter C:\G09W\l303.exe)
 DipDrv:  MaxL=1.
 Leave Link  303 at Sat Jul 06 19:57:20 2019, MaxMem=   209715200 cpu:         0.0
 (Enter C:\G09W\l401.exe)
 ExpMin= 3.50D-02 ExpMax= 4.40D+05 ExpMxC= 1.51D+04 IAcc=3 IRadAn=         5 AccDes= 0.00D+00
 Harris functional with IExCor=  402 and IRadAn=       5 diagonalized for initial guess.
 HarFok:  IExCor=  402 AccDes= 0.00D+00 IRadAn=         5 IDoV= 1 UseB2=F ITyADJ=14
 ICtDFT=  3500011 ScaDFX=  1.000000  1.000000  1.000000  1.000000
 FoFCou: FMM=F IPFlag=           0 FMFlag=      100000 FMFlg1=           0
         NFxFlg=           0 DoJE=T BraDBF=F KetDBF=T FulRan=T
         wScrn=  0.000000 ICntrl=     500 IOpCl=  0 I1Cent=   200000004 NGrid=           0
         NMat0=    1 NMatS0=      1 NMatT0=    0 NMatD0=    1 NMtDS0=    0 NMtDT0=    0
 Petite list used in FoFCou.
 Harris En= -4085.26671068731    
 JPrj=0 DoOrth=F DoCkMO=F.
 Leave Link  401 at Sat Jul 06 19:57:55 2019, MaxMem=   209715200 cpu:        35.0
 (Enter C:\G09W\l502.exe)
 Closed shell SCF:
 Using DIIS extrapolation, IDIIS=  1040.
 Integral symmetry usage will be decided dynamically.
 IVT=     1565149 IEndB=     1565149 NGot=   209715200 MDV=   208680064
 LenX=   208680064 LenY=   208166692
 Requested convergence on RMS density matrix=1.00D-08 within 128 cycles.
 Requested convergence on MAX density matrix=1.00D-06.
 Requested convergence on             energy=1.00D-06.
 No special actions if energy rises.
 Fock matrices will be formed incrementally for  20 cycles.

 Cycle   1  Pass 1  IDiag  1:
 FoFJK:  IHMeth= 1 ICntrl=       0 DoSepK=F KAlg= 0 I1Cent=   0 FoldK=F
 IRaf= 760000000 NMat=   1 IRICut=       1 DoRegI=T DoRafI=F ISym2E= 0.
 FoFCou: FMM=F IPFlag=           0 FMFlag=      100000 FMFlg1=           0
         NFxFlg=           0 DoJE=F BraDBF=F KetDBF=F FulRan=T
         wScrn=  0.000000 ICntrl=       0 IOpCl=  0 I1Cent=           0 NGrid=           0
         NMat0=    1 NMatS0=      1 NMatT0=    0 NMatD0=    1 NMtDS0=    0 NMtDT0=    0
 Symmetry not used in FoFCou.
 E= -4084.65151121869    
 DIIS: error= 5.23D-02 at cycle   1 NSaved=   1.
 NSaved= 1 IEnMin= 1 EnMin= -4084.65151121869     IErMin= 1 ErrMin= 5.23D-02
 ErrMax= 5.23D-02  0.00D+00 EMaxC= 1.00D-01 BMatC= 1.87D+00 BMatP= 1.87D+00
 IDIUse=3 WtCom= 4.77D-01 WtEn= 5.23D-01
 Coeff-Com:  0.100D+01
 Coeff-En:   0.100D+01
 Coeff:      0.100D+01
 Gap=     0.330 Goal=   None    Shift=    0.000
 GapD=    0.330 DampG=1.000 DampE=0.500 DampFc=0.5000 IDamp=-1.
 Damping current iteration by 5.00D-01
 RMSDP=2.23D-02 MaxDP=2.66D+00              OVMax= 2.16D-01

 Cycle   2  Pass 1  IDiag  1:
 RMSU=  1.11D-02    CP:  9.65D-01
 E= -4084.86358008820     Delta-E=       -0.212068869508 Rises=F Damp=T
 DIIS: error= 2.60D-02 at cycle   2 NSaved=   2.
 NSaved= 2 IEnMin= 2 EnMin= -4084.86358008820     IErMin= 2 ErrMin= 2.60D-02
 ErrMax= 2.60D-02  0.00D+00 EMaxC= 1.00D-01 BMatC= 2.61D-01 BMatP= 1.87D+00
 IDIUse=3 WtCom= 7.40D-01 WtEn= 2.60D-01
 Coeff-Com: -0.119D+00 0.112D+01
 Coeff-En:   0.229D+00 0.771D+00
 Coeff:     -0.283D-01 0.103D+01
 Gap=     0.340 Goal=   None    Shift=    0.000
 RMSDP=1.06D-02 MaxDP=1.01D+00 DE=-2.12D-01 OVMax= 2.27D-01

 Cycle   3  Pass 1  IDiag  1:
 RMSU=  8.29D-03    CP:  9.73D-01  3.98D-01
 E= -4085.07296640687     Delta-E=       -0.209386318673 Rises=F Damp=F
 DIIS: error= 1.39D-02 at cycle   3 NSaved=   3.
 NSaved= 3 IEnMin= 3 EnMin= -4085.07296640687     IErMin= 3 ErrMin= 1.39D-02
 ErrMax= 1.39D-02  0.00D+00 EMaxC= 1.00D-01 BMatC= 2.07D-01 BMatP= 2.61D-01
 IDIUse=3 WtCom= 8.61D-01 WtEn= 1.39D-01
 Coeff-Com: -0.183D+00 0.603D+00 0.581D+00
 Coeff-En:   0.000D+00 0.399D-01 0.960D+00
 Coeff:     -0.158D+00 0.525D+00 0.633D+00
 Gap=     0.199 Goal=   None    Shift=    0.000
 RMSDP=6.19D-03 MaxDP=7.34D-01 DE=-2.09D-01 OVMax= 1.43D-01

 Cycle   4  Pass 1  IDiag  1:
 RMSU=  4.60D-03    CP:  9.21D-01  6.14D-01  7.00D-01
 E= -4085.16083590732     Delta-E=       -0.087869500449 Rises=F Damp=F
 DIIS: error= 9.37D-03 at cycle   4 NSaved=   4.
 NSaved= 4 IEnMin= 4 EnMin= -4085.16083590732     IErMin= 4 ErrMin= 9.37D-03
 ErrMax= 9.37D-03  0.00D+00 EMaxC= 1.00D-01 BMatC= 8.46D-02 BMatP= 2.07D-01
 IDIUse=3 WtCom= 9.06D-01 WtEn= 9.37D-02
 Coeff-Com: -0.976D-01 0.250D+00 0.436D+00 0.412D+00
 Coeff-En:   0.000D+00 0.000D+00 0.332D+00 0.668D+00
 Coeff:     -0.884D-01 0.226D+00 0.426D+00 0.436D+00
 Gap=     0.184 Goal=   None    Shift=    0.000
 RMSDP=3.41D-03 MaxDP=3.19D-01 DE=-8.79D-02 OVMax= 6.53D-02

 Cycle   5  Pass 1  IDiag  1:
 RMSU=  1.93D-03    CP:  8.86D-01  6.48D-01  5.96D-01  5.36D-01
 E= -4085.22475987027     Delta-E=       -0.063923962949 Rises=F Damp=F
 DIIS: error= 1.85D-03 at cycle   5 NSaved=   5.
 NSaved= 5 IEnMin= 5 EnMin= -4085.22475987027     IErMin= 5 ErrMin= 1.85D-03
 ErrMax= 1.85D-03  0.00D+00 EMaxC= 1.00D-01 BMatC= 3.19D-03 BMatP= 8.46D-02
 IDIUse=3 WtCom= 9.82D-01 WtEn= 1.85D-02
 Coeff-Com: -0.324D-01 0.770D-01 0.173D+00 0.246D+00 0.537D+00
 Coeff-En:   0.000D+00 0.000D+00 0.000D+00 0.000D+00 0.100D+01
 Coeff:     -0.318D-01 0.755D-01 0.169D+00 0.241D+00 0.546D+00
 Gap=     0.176 Goal=   None    Shift=    0.000
 RMSDP=1.22D-03 MaxDP=1.13D-01 DE=-6.39D-02 OVMax= 1.60D-02

 Cycle   6  Pass 1  IDiag  1:
 RMSU=  5.46D-04    CP:  8.96D-01  6.30D-01  6.83D-01  6.10D-01  7.11D-01
 E= -4085.22726152163     Delta-E=       -0.002501651360 Rises=F Damp=F
 DIIS: error= 6.79D-04 at cycle   6 NSaved=   6.
 NSaved= 6 IEnMin= 6 EnMin= -4085.22726152163     IErMin= 6 ErrMin= 6.79D-04
 ErrMax= 6.79D-04  0.00D+00 EMaxC= 1.00D-01 BMatC= 3.95D-04 BMatP= 3.19D-03
 IDIUse=3 WtCom= 9.93D-01 WtEn= 6.79D-03
 Coeff-Com: -0.785D-02 0.170D-01 0.463D-01 0.922D-01 0.333D+00 0.520D+00
 Coeff-En:   0.000D+00 0.000D+00 0.000D+00 0.000D+00 0.714D-01 0.929D+00
 Coeff:     -0.779D-02 0.169D-01 0.460D-01 0.916D-01 0.331D+00 0.522D+00
 Gap=     0.177 Goal=   None    Shift=    0.000
 RMSDP=2.87D-04 MaxDP=3.29D-02 DE=-2.50D-03 OVMax= 6.35D-03

 Cycle   7  Pass 1  IDiag  1:
 RMSU=  1.62D-04    CP:  8.96D-01  6.27D-01  6.77D-01  6.12D-01  7.06D-01
                    CP:  5.79D-01
 E= -4085.22758420301     Delta-E=       -0.000322681380 Rises=F Damp=F
 DIIS: error= 2.09D-04 at cycle   7 NSaved=   7.
 NSaved= 7 IEnMin= 7 EnMin= -4085.22758420301     IErMin= 7 ErrMin= 2.09D-04
 ErrMax= 2.09D-04  0.00D+00 EMaxC= 1.00D-01 BMatC= 3.84D-05 BMatP= 3.95D-04
 IDIUse=3 WtCom= 9.98D-01 WtEn= 2.09D-03
 Coeff-Com: -0.134D-02 0.259D-02 0.790D-02 0.243D-01 0.132D+00 0.296D+00
 Coeff-Com:  0.538D+00
 Coeff-En:   0.000D+00 0.000D+00 0.000D+00 0.000D+00 0.000D+00 0.444D-01
 Coeff-En:   0.956D+00
 Coeff:     -0.134D-02 0.258D-02 0.788D-02 0.242D-01 0.132D+00 0.295D+00
 Coeff:      0.539D+00
 Gap=     0.177 Goal=   None    Shift=    0.000
 RMSDP=1.13D-04 MaxDP=1.25D-02 DE=-3.23D-04 OVMax= 2.15D-03

 Cycle   8  Pass 1  IDiag  1:
 RMSU=  5.50D-05    CP:  8.96D-01  6.29D-01  6.77D-01  6.19D-01  7.17D-01
                    CP:  6.28D-01  4.85D-01
 E= -4085.22761525329     Delta-E=       -0.000031050283 Rises=F Damp=F
 DIIS: error= 6.87D-05 at cycle   8 NSaved=   8.
 NSaved= 8 IEnMin= 8 EnMin= -4085.22761525329     IErMin= 8 ErrMin= 6.87D-05
 ErrMax= 6.87D-05  0.00D+00 EMaxC= 1.00D-01 BMatC= 6.82D-06 BMatP= 3.84D-05
 IDIUse=1 WtCom= 1.00D+00 WtEn= 0.00D+00
 Coeff-Com:  0.200D-03-0.527D-03-0.879D-03 0.276D-02 0.412D-01 0.117D+00
 Coeff-Com:  0.340D+00 0.501D+00
 Coeff:      0.200D-03-0.527D-03-0.879D-03 0.276D-02 0.412D-01 0.117D+00
 Coeff:      0.340D+00 0.501D+00
 Gap=     0.177 Goal=   None    Shift=    0.000
 RMSDP=4.42D-05 MaxDP=3.75D-03 DE=-3.11D-05 OVMax= 7.44D-04

 Cycle   9  Pass 1  IDiag  1:
 RMSU=  1.79D-05    CP:  8.95D-01  6.29D-01  6.75D-01  6.14D-01  7.25D-01
                    CP:  6.32D-01  5.64D-01  8.21D-01
 E= -4085.22762130087     Delta-E=       -0.000006047578 Rises=F Damp=F
 DIIS: error= 2.68D-05 at cycle   9 NSaved=   9.
 NSaved= 9 IEnMin= 9 EnMin= -4085.22762130087     IErMin= 9 ErrMin= 2.68D-05
 ErrMax= 2.68D-05  0.00D+00 EMaxC= 1.00D-01 BMatC= 3.64D-07 BMatP= 6.82D-06
 IDIUse=1 WtCom= 1.00D+00 WtEn= 0.00D+00
 Coeff-Com:  0.224D-03-0.515D-03-0.817D-03-0.115D-03 0.137D-01 0.412D-01
 Coeff-Com:  0.141D+00 0.265D+00 0.540D+00
 Coeff:      0.224D-03-0.515D-03-0.817D-03-0.115D-03 0.137D-01 0.412D-01
 Coeff:      0.141D+00 0.265D+00 0.540D+00
 Gap=     0.177 Goal=   None    Shift=    0.000
 RMSDP=1.09D-05 MaxDP=1.39D-03 DE=-6.05D-06 OVMax= 1.96D-04

 Cycle  10  Pass 1  IDiag  1:
 RMSU=  5.21D-06    CP:  8.95D-01  6.29D-01  6.75D-01  6.15D-01  7.23D-01
                    CP:  6.36D-01  5.81D-01  7.41D-01  7.42D-01
 E= -4085.22762158637     Delta-E=       -0.000000285503 Rises=F Damp=F
 DIIS: error= 1.51D-05 at cycle  10 NSaved=  10.
 NSaved=10 IEnMin=10 EnMin= -4085.22762158637     IErMin=10 ErrMin= 1.51D-05
 ErrMax= 1.51D-05  0.00D+00 EMaxC= 1.00D-01 BMatC= 5.79D-08 BMatP= 3.64D-07
 IDIUse=1 WtCom= 1.00D+00 WtEn= 0.00D+00
 Coeff-Com:  0.109D-03-0.253D-03-0.332D-03-0.463D-03 0.300D-02 0.974D-02
 Coeff-Com:  0.424D-01 0.959D-01 0.323D+00 0.527D+00
 Coeff:      0.109D-03-0.253D-03-0.332D-03-0.463D-03 0.300D-02 0.974D-02
 Coeff:      0.424D-01 0.959D-01 0.323D+00 0.527D+00
 Gap=     0.177 Goal=   None    Shift=    0.000
 RMSDP=3.37D-06 MaxDP=2.89D-04 DE=-2.86D-07 OVMax= 8.89D-05

 Cycle  11  Pass 1  IDiag  1:
 RMSU=  1.93D-06    CP:  8.95D-01  6.29D-01  6.75D-01  6.15D-01  7.23D-01
                    CP:  6.34D-01  5.83D-01  7.65D-01  7.77D-01  7.10D-01
 E= -4085.22762163956     Delta-E=       -0.000000053185 Rises=F Damp=F
 DIIS: error= 3.68D-06 at cycle  11 NSaved=  11.
 NSaved=11 IEnMin=11 EnMin= -4085.22762163956     IErMin=11 ErrMin= 3.68D-06
 ErrMax= 3.68D-06  0.00D+00 EMaxC= 1.00D-01 BMatC= 6.32D-09 BMatP= 5.79D-08
 IDIUse=1 WtCom= 1.00D+00 WtEn= 0.00D+00
 Coeff-Com:  0.429D-04-0.102D-03-0.119D-03-0.275D-03 0.547D-03 0.215D-02
 Coeff-Com:  0.131D-01 0.353D-01 0.151D+00 0.320D+00 0.477D+00
 Coeff:      0.429D-04-0.102D-03-0.119D-03-0.275D-03 0.547D-03 0.215D-02
 Coeff:      0.131D-01 0.353D-01 0.151D+00 0.320D+00 0.477D+00
 Gap=     0.177 Goal=   None    Shift=    0.000
 RMSDP=9.21D-07 MaxDP=1.08D-04 DE=-5.32D-08 OVMax= 2.36D-05

 Cycle  12  Pass 1  IDiag  1:
 RMSU=  6.45D-07    CP:  8.95D-01  6.29D-01  6.75D-01  6.15D-01  7.23D-01
                    CP:  6.34D-01  5.81D-01  7.67D-01  7.78D-01  7.16D-01
                    CP:  7.65D-01
 E= -4085.22762164523     Delta-E=       -0.000000005669 Rises=F Damp=F
 DIIS: error= 7.64D-07 at cycle  12 NSaved=  12.
 NSaved=12 IEnMin=12 EnMin= -4085.22762164523     IErMin=12 ErrMin= 7.64D-07
 ErrMax= 7.64D-07  0.00D+00 EMaxC= 1.00D-01 BMatC= 5.41D-10 BMatP= 6.32D-09
 IDIUse=1 WtCom= 1.00D+00 WtEn= 0.00D+00
 Coeff-Com:  0.530D-05-0.126D-04-0.185D-04-0.618D-04-0.192D-03-0.375D-03
 Coeff-Com: -0.266D-03 0.230D-02 0.257D-01 0.736D-01 0.246D+00 0.653D+00
 Coeff:      0.530D-05-0.126D-04-0.185D-04-0.618D-04-0.192D-03-0.375D-03
 Coeff:     -0.266D-03 0.230D-02 0.257D-01 0.736D-01 0.246D+00 0.653D+00
 Gap=     0.177 Goal=   None    Shift=    0.000
 RMSDP=5.05D-07 MaxDP=4.82D-05 DE=-5.67D-09 OVMax= 5.85D-06

 Cycle  13  Pass 1  IDiag  1:
 RMSU=  2.39D-07    CP:  8.95D-01  6.29D-01  6.75D-01  6.15D-01  7.23D-01
                    CP:  6.33D-01  5.81D-01  7.68D-01  7.83D-01  7.30D-01
                    CP:  7.72D-01  8.22D-01
 E= -4085.22762164616     Delta-E=       -0.000000000929 Rises=F Damp=F
 DIIS: error= 2.66D-07 at cycle  13 NSaved=  13.
 NSaved=13 IEnMin=13 EnMin= -4085.22762164616     IErMin=13 ErrMin= 2.66D-07
 ErrMax= 2.66D-07  0.00D+00 EMaxC= 1.00D-01 BMatC= 6.62D-11 BMatP= 5.41D-10
 IDIUse=1 WtCom= 1.00D+00 WtEn= 0.00D+00
 Coeff-Com:  0.415D-06-0.997D-06-0.580D-05-0.149D-04-0.132D-03-0.287D-03
 Coeff-Com: -0.861D-03-0.835D-03 0.442D-02 0.182D-01 0.106D+00 0.354D+00
 Coeff-Com:  0.520D+00
 Coeff:      0.415D-06-0.997D-06-0.580D-05-0.149D-04-0.132D-03-0.287D-03
 Coeff:     -0.861D-03-0.835D-03 0.442D-02 0.182D-01 0.106D+00 0.354D+00
 Coeff:      0.520D+00
 Gap=     0.177 Goal=   None    Shift=    0.000
 RMSDP=1.43D-07 MaxDP=2.18D-05 DE=-9.29D-10 OVMax= 2.90D-06

 Cycle  14  Pass 1  IDiag  1:
 RMSU=  6.49D-08    CP:  8.95D-01  6.29D-01  6.75D-01  6.15D-01  7.23D-01
                    CP:  6.34D-01  5.81D-01  7.68D-01  7.83D-01  7.28D-01
                    CP:  7.84D-01  8.15D-01  7.19D-01
 E= -4085.22762164628     Delta-E=       -0.000000000121 Rises=F Damp=F
 DIIS: error= 1.19D-07 at cycle  14 NSaved=  14.
 NSaved=14 IEnMin=14 EnMin= -4085.22762164628     IErMin=14 ErrMin= 1.19D-07
 ErrMax= 1.19D-07  0.00D+00 EMaxC= 1.00D-01 BMatC= 9.59D-12 BMatP= 6.62D-11
 IDIUse=1 WtCom= 1.00D+00 WtEn= 0.00D+00
 Coeff-Com: -0.677D-06 0.151D-05-0.106D-05 0.315D-06-0.578D-04-0.124D-03
 Coeff-Com: -0.493D-03-0.888D-03-0.151D-02-0.971D-03 0.240D-01 0.987D-01
 Coeff-Com:  0.308D+00 0.573D+00
 Coeff:     -0.677D-06 0.151D-05-0.106D-05 0.315D-06-0.578D-04-0.124D-03
 Coeff:     -0.493D-03-0.888D-03-0.151D-02-0.971D-03 0.240D-01 0.987D-01
 Coeff:      0.308D+00 0.573D+00
 Gap=     0.177 Goal=   None    Shift=    0.000
 RMSDP=5.05D-08 MaxDP=5.41D-06 DE=-1.21D-10 OVMax= 8.82D-07

 Cycle  15  Pass 1  IDiag  1:
 RMSU=  2.01D-08    CP:  8.95D-01  6.29D-01  6.75D-01  6.15D-01  7.23D-01
                    CP:  6.34D-01  5.81D-01  7.68D-01  7.83D-01  7.28D-01
                    CP:  7.91D-01  8.25D-01  7.18D-01  7.32D-01
 E= -4085.22762164584     Delta-E=        0.000000000437 Rises=F Damp=F
 DIIS: error= 1.66D-08 at cycle  15 NSaved=  15.
 NSaved=15 IEnMin=14 EnMin= -4085.22762164628     IErMin=15 ErrMin= 1.66D-08
 ErrMax= 1.66D-08  0.00D+00 EMaxC= 1.00D-01 BMatC= 5.68D-13 BMatP= 9.59D-12
 IDIUse=1 WtCom= 1.00D+00 WtEn= 0.00D+00
 Coeff-Com: -0.362D-06 0.809D-06-0.127D-06 0.134D-05-0.193D-04-0.427D-04
 Coeff-Com: -0.191D-03-0.406D-03-0.115D-02-0.181D-02 0.410D-02 0.222D-01
 Coeff-Com:  0.121D+00 0.293D+00 0.563D+00
 Coeff:     -0.362D-06 0.809D-06-0.127D-06 0.134D-05-0.193D-04-0.427D-04
 Coeff:     -0.191D-03-0.406D-03-0.115D-02-0.181D-02 0.410D-02 0.222D-01
 Coeff:      0.121D+00 0.293D+00 0.563D+00
 Gap=     0.177 Goal=   None    Shift=    0.000
 RMSDP=1.64D-08 MaxDP=1.73D-06 DE= 4.37D-10 OVMax= 2.39D-07

 Cycle  16  Pass 1  IDiag  1:
 RMSU=  5.95D-09    CP:  8.95D-01  6.29D-01  6.75D-01  6.15D-01  7.23D-01
                    CP:  6.34D-01  5.81D-01  7.68D-01  7.83D-01  7.29D-01
                    CP:  7.90D-01  8.21D-01  7.33D-01  7.99D-01  8.60D-01
 E= -4085.22762164638     Delta-E=       -0.000000000543 Rises=F Damp=F
 DIIS: error= 5.85D-09 at cycle  16 NSaved=  16.
 NSaved=16 IEnMin=16 EnMin= -4085.22762164638     IErMin=16 ErrMin= 5.85D-09
 ErrMax= 5.85D-09  0.00D+00 EMaxC= 1.00D-01 BMatC= 7.93D-14 BMatP= 5.68D-13
 IDIUse=1 WtCom= 1.00D+00 WtEn= 0.00D+00
 Coeff-Com: -0.102D-06 0.227D-06 0.142D-06 0.468D-06-0.240D-05-0.665D-05
 Coeff-Com: -0.320D-04-0.848D-04-0.349D-03-0.640D-03-0.760D-03-0.675D-03
 Coeff-Com:  0.227D-01 0.712D-01 0.295D+00 0.614D+00
 Coeff:     -0.102D-06 0.227D-06 0.142D-06 0.468D-06-0.240D-05-0.665D-05
 Coeff:     -0.320D-04-0.848D-04-0.349D-03-0.640D-03-0.760D-03-0.675D-03
 Coeff:      0.227D-01 0.712D-01 0.295D+00 0.614D+00
 Gap=     0.177 Goal=   None    Shift=    0.000
 RMSDP=7.37D-09 MaxDP=1.01D-06 DE=-5.43D-10 OVMax= 8.51D-08

 Cycle  17  Pass 1  IDiag  1:
 RMSU=  2.28D-09    CP:  8.95D-01  6.29D-01  6.75D-01  6.15D-01  7.23D-01
                    CP:  6.34D-01  5.81D-01  7.68D-01  7.83D-01  7.29D-01
                    CP:  7.90D-01  8.23D-01  7.41D-01  7.88D-01  8.32D-01
                    CP:  7.29D-01
 E= -4085.22762164612     Delta-E=        0.000000000267 Rises=F Damp=F
 DIIS: error= 2.37D-09 at cycle  17 NSaved=  17.
 NSaved=17 IEnMin=16 EnMin= -4085.22762164638     IErMin=17 ErrMin= 2.37D-09
 ErrMax= 2.37D-09  0.00D+00 EMaxC= 1.00D-01 BMatC= 9.32D-15 BMatP= 7.93D-14
 IDIUse=1 WtCom= 1.00D+00 WtEn= 0.00D+00
 Coeff-Com: -0.163D-07 0.388D-07 0.959D-07 0.899D-07 0.683D-06 0.628D-06
 Coeff-Com:  0.889D-06-0.725D-05-0.934D-04-0.203D-03-0.966D-03-0.278D-02
 Coeff-Com: -0.160D-03 0.895D-02 0.103D+00 0.328D+00 0.565D+00
 Coeff:     -0.163D-07 0.388D-07 0.959D-07 0.899D-07 0.683D-06 0.628D-06
 Coeff:      0.889D-06-0.725D-05-0.934D-04-0.203D-03-0.966D-03-0.278D-02
 Coeff:     -0.160D-03 0.895D-02 0.103D+00 0.328D+00 0.565D+00
 Gap=     0.177 Goal=   None    Shift=    0.000
 RMSDP=1.41D-09 MaxDP=1.26D-07 DE= 2.67D-10 OVMax= 2.23D-08

 SCF Done:  E(RB3LYP) =  -4085.22762165     A.U. after   17 cycles
            NFock= 17  Conv=0.14D-08     -V/T= 2.0018
 KE= 4.077839721789D+03 PE=-1.506121532326D+04 EE= 4.216262941857D+03
 Leave Link  502 at Sat Jul 06 20:28:08 2019, MaxMem=   209715200 cpu:      1813.0
 (Enter C:\G09W\l601.exe)
 Copying SCF densities to generalized density rwf, IOpCl= 0 IROHF=0.

 **********************************************************************

            Population analysis using the SCF density.

 **********************************************************************

 Orbital symmetries:
       Occupied  (A) (A) (A) (A) (A) (A) (A) (A) (A) (A) (A) (A)
                 (A) (A) (A) (A) (A) (A) (A) (A) (A) (A) (A) (A)
                 (A) (A) (A) (A) (A) (A) (A) (A) (A) (A) (A) (A)
                 (A) (A) (A) (A) (A) (A) (A) (A) (A) (A) (A) (A)
                 (A) (A) (A) (A) (A) (A) (A) (A) (A) (A) (A) (A)
                 (A) (A) (A) (A) (A) (A) (A) (A) (A) (A) (A) (A)
                 (A) (A) (A) (A) (A) (A) (A) (A) (A) (A) (A) (A)
                 (A) (A) (A) (A) (A) (A) (A) (A) (A) (A) (A) (A)
                 (A) (A) (A) (A) (A) (A) (A) (A) (A) (A) (A)
       Virtual   (A) (A) (A) (A) (A) (A) (A) (A) (A) (A) (A) (A)
                 (A) (A) (A) (A) (A) (A) (A) (A) (A) (A) (A) (A)
                 (A) (A) (A) (A) (A) (A) (A) (A) (A) (A) (A) (A)
                 (A) (A) (A) (A) (A) (A) (A) (A) (A) (A) (A) (A)
                 (A) (A) (A) (A) (A) (A) (A) (A) (A) (A) (A) (A)
                 (A) (A) (A) (A) (A) (A) (A) (A) (A) (A) (A) (A)
                 (A) (A) (A) (A) (A) (A) (A) (A) (A) (A) (A) (A)
                 (A) (A) (A) (A) (A) (A) (A) (A) (A) (A) (A) (A)
                 (A) (A) (A) (A) (A) (A) (A) (A) (A) (A) (A) (A)
                 (A) (A) (A) (A) (A) (A) (A) (A) (A) (A) (A) (A)
                 (A) (A) (A) (A) (A) (A) (A) (A) (A) (A) (A) (A)
                 (A) (A) (A) (A) (A) (A) (A) (A) (A) (A) (A) (A)
                 (A) (A) (A) (A) (A) (A) (A) (A) (A) (A) (A) (A)
                 (A) (A) (A) (A) (A) (A) (A) (A) (A) (A) (A) (A)
                 (A) (A) (A) (A) (A) (A) (A) (A) (A) (A) (A) (A)
                 (A) (A) (A) (A) (A) (A) (A) (A) (A) (A) (A) (A)
                 (A) (A) (A) (A) (A) (A) (A) (A) (A) (A) (A) (A)
                 (A) (A) (A) (A) (A) (A) (A) (A) (A) (A) (A) (A)
                 (A) (A) (A) (A) (A) (A) (A) (A) (A) (A) (A) (A)
                 (A) (A) (A) (A) (A) (A) (A) (A) (A) (A) (A) (A)
                 (A) (A) (A) (A) (A) (A) (A) (A) (A) (A) (A) (A)
                 (A) (A) (A) (A) (A) (A) (A) (A) (A) (A) (A) (A)
                 (A) (A) (A) (A) (A) (A) (A) (A) (A) (A) (A) (A)
                 (A) (A) (A) (A) (A) (A) (A) (A) (A) (A) (A) (A)
                 (A) (A) (A) (A) (A) (A) (A) (A) (A) (A) (A) (A)
                 (A) (A) (A) (A) (A) (A) (A) (A) (A) (A) (A) (A)
                 (A) (A) (A) (A) (A) (A) (A) (A) (A) (A) (A) (A)
                 (A) (A) (A) (A) (A) (A) (A) (A) (A) (A) (A) (A)
                 (A) (A) (A) (A) (A) (A) (A) (A) (A) (A) (A) (A)
                 (A) (A) (A) (A) (A) (A) (A) (A) (A) (A) (A) (A)
                 (A) (A) (A) (A) (A) (A) (A) (A) (A) (A) (A) (A)
                 (A) (A) (A) (A) (A) (A) (A) (A) (A) (A) (A) (A)
                 (A) (A) (A) (A) (A) (A) (A) (A) (A) (A) (A) (A)
                 (A) (A) (A) (A) (A) (A) (A) (A) (A) (A) (A) (A)
                 (A) (A) (A) (A) (A) (A) (A) (A) (A) (A) (A) (A)
                 (A) (A) (A) (A) (A) (A) (A) (A) (A) (A) (A) (A)
                 (A) (A) (A) (A) (A) (A) (A) (A) (A) (A) (A) (A)
                 (A) (A) (A) (A) (A) (A) (A) (A) (A) (A) (A) (A)
                 (A) (A) (A) (A) (A) (A) (A) (A) (A) (A) (A) (A)
                 (A) (A) (A) (A) (A) (A) (A) (A) (A) (A) (A) (A)
                 (A) (A) (A) (A) (A) (A) (A) (A) (A) (A) (A) (A)
                 (A) (A) (A) (A) (A) (A) (A) (A) (A) (A) (A) (A)
                 (A) (A) (A) (A) (A) (A) (A) (A) (A) (A) (A) (A)
                 (A) (A) (A) (A) (A) (A) (A) (A) (A) (A) (A) (A)
                 (A) (A) (A) (A) (A) (A) (A) (A) (A) (A) (A) (A)
                 (A) (A) (A) (A) (A) (A) (A) (A) (A) (A) (A) (A)
                 (A) (A) (A) (A) (A) (A) (A) (A) (A) (A) (A) (A)
                 (A) (A) (A) (A) (A) (A) (A) (A) (A) (A) (A) (A)
                 (A)
 The electronic state is 1-A.
 Alpha  occ. eigenvalues -- -482.84769-101.57010 -62.50063 -56.32097 -56.31711
 Alpha  occ. eigenvalues --  -56.31697 -19.17535 -19.16554 -19.13765 -19.10698
 Alpha  occ. eigenvalues --  -14.37688 -10.30189 -10.26389 -10.25563 -10.25483
 Alpha  occ. eigenvalues --  -10.25171 -10.24958 -10.24466 -10.23160 -10.23151
 Alpha  occ. eigenvalues --  -10.21357 -10.21323 -10.21273 -10.21119 -10.18720
 Alpha  occ. eigenvalues --  -10.18592 -10.18457 -10.18183 -10.17820  -9.48448
 Alpha  occ. eigenvalues --   -8.71046  -7.24919  -7.23911  -7.23906  -6.54193
 Alpha  occ. eigenvalues --   -6.52896  -6.52864  -2.65291  -2.64915  -2.64893
 Alpha  occ. eigenvalues --   -2.63863  -2.63862  -1.13330  -1.09205  -1.05916
 Alpha  occ. eigenvalues --   -1.04315  -0.99871  -0.91163  -0.89062  -0.87617
 Alpha  occ. eigenvalues --   -0.83658  -0.81102  -0.79593  -0.79320  -0.76965
 Alpha  occ. eigenvalues --   -0.76202  -0.74948  -0.71832  -0.67702  -0.66269
 Alpha  occ. eigenvalues --   -0.65072  -0.63034  -0.62305  -0.60671  -0.59942
 Alpha  occ. eigenvalues --   -0.56054  -0.55871  -0.54909  -0.53735  -0.53274
 Alpha  occ. eigenvalues --   -0.51239  -0.50812  -0.50513  -0.49932  -0.48880
 Alpha  occ. eigenvalues --   -0.47556  -0.46816  -0.46491  -0.45976  -0.44705
 Alpha  occ. eigenvalues --   -0.44248  -0.43774  -0.43100  -0.42655  -0.42446
 Alpha  occ. eigenvalues --   -0.41294  -0.40659  -0.39750  -0.39667  -0.39035
 Alpha  occ. eigenvalues --   -0.38896  -0.37500  -0.35801  -0.35398  -0.34083
 Alpha  occ. eigenvalues --   -0.33844  -0.33377  -0.33209  -0.32128  -0.31075
 Alpha  occ. eigenvalues --   -0.29939  -0.29479  -0.28688  -0.27473  -0.27130
 Alpha  occ. eigenvalues --   -0.23912  -0.23582
 Alpha virt. eigenvalues --   -0.05886  -0.05386  -0.03141  -0.02868  -0.02734
 Alpha virt. eigenvalues --   -0.01567  -0.01293  -0.01095  -0.00584  -0.00342
 Alpha virt. eigenvalues --    0.00419   0.00935   0.01476   0.01841   0.02205
 Alpha virt. eigenvalues --    0.02518   0.02779   0.02971   0.03570   0.03827
 Alpha virt. eigenvalues --    0.04337   0.04614   0.05134   0.05473   0.05729
 Alpha virt. eigenvalues --    0.06174   0.06822   0.06949   0.07367   0.07598
 Alpha virt. eigenvalues --    0.07760   0.08077   0.08144   0.08599   0.09039
 Alpha virt. eigenvalues --    0.09132   0.09421   0.09666   0.09734   0.10022
 Alpha virt. eigenvalues --    0.10245   0.10373   0.10775   0.10871   0.11004
 Alpha virt. eigenvalues --    0.11246   0.11580   0.12001   0.12326   0.12384
 Alpha virt. eigenvalues --    0.12536   0.12772   0.12836   0.13254   0.13599
 Alpha virt. eigenvalues --    0.13719   0.13859   0.14148   0.14568   0.14707
 Alpha virt. eigenvalues --    0.14920   0.14982   0.15414   0.15599   0.15835
 Alpha virt. eigenvalues --    0.16095   0.16213   0.16431   0.16677   0.16868
 Alpha virt. eigenvalues --    0.17137   0.17304   0.17432   0.17699   0.17904
 Alpha virt. eigenvalues --    0.18178   0.18919   0.19170   0.19624   0.20298
 Alpha virt. eigenvalues --    0.20360   0.20549   0.20855   0.20904   0.21092
 Alpha virt. eigenvalues --    0.21328   0.21684   0.21983   0.22419   0.22776
 Alpha virt. eigenvalues --    0.22884   0.23049   0.23543   0.23775   0.24229
 Alpha virt. eigenvalues --    0.24519   0.24938   0.25080   0.25530   0.25851
 Alpha virt. eigenvalues --    0.26174   0.26379   0.26632   0.26855   0.27021
 Alpha virt. eigenvalues --    0.27295   0.27413   0.27943   0.28389   0.28536
 Alpha virt. eigenvalues --    0.28806   0.29013   0.29409   0.29862   0.30106
 Alpha virt. eigenvalues --    0.30313   0.30547   0.30677   0.30975   0.31500
 Alpha virt. eigenvalues --    0.31877   0.32071   0.32140   0.32603   0.32867
 Alpha virt. eigenvalues --    0.32903   0.33560   0.33743   0.34332   0.34601
 Alpha virt. eigenvalues --    0.34813   0.35504   0.35819   0.36231   0.36237
 Alpha virt. eigenvalues --    0.36677   0.36895   0.37197   0.37283   0.38036
 Alpha virt. eigenvalues --    0.38236   0.39594   0.39944   0.40132   0.40697
 Alpha virt. eigenvalues --    0.41073   0.41339   0.41948   0.42719   0.43292
 Alpha virt. eigenvalues --    0.43594   0.43884   0.44421   0.44625   0.45266
 Alpha virt. eigenvalues --    0.46133   0.46867   0.47446   0.48037   0.49086
 Alpha virt. eigenvalues --    0.49557   0.49969   0.50871   0.51388   0.52354
 Alpha virt. eigenvalues --    0.53159   0.53264   0.54574   0.54925   0.55681
 Alpha virt. eigenvalues --    0.56183   0.56423   0.56719   0.57386   0.57853
 Alpha virt. eigenvalues --    0.58186   0.58706   0.59091   0.59300   0.59707
 Alpha virt. eigenvalues --    0.60508   0.60624   0.61154   0.61870   0.62261
 Alpha virt. eigenvalues --    0.62480   0.63361   0.63858   0.64205   0.64746
 Alpha virt. eigenvalues --    0.65167   0.65542   0.66037   0.66660   0.67027
 Alpha virt. eigenvalues --    0.67500   0.68647   0.68881   0.68999   0.69709
 Alpha virt. eigenvalues --    0.70156   0.70863   0.71405   0.71730   0.71894
 Alpha virt. eigenvalues --    0.72195   0.72925   0.73221   0.73898   0.74206
 Alpha virt. eigenvalues --    0.74455   0.74790   0.75009   0.75732   0.76146
 Alpha virt. eigenvalues --    0.76890   0.77968   0.78888   0.79106   0.79935
 Alpha virt. eigenvalues --    0.80209   0.80747   0.81600   0.82823   0.83293
 Alpha virt. eigenvalues --    0.84348   0.84666   0.85826   0.86466   0.86519
 Alpha virt. eigenvalues --    0.86794   0.87028   0.87700   0.88314   0.89052
 Alpha virt. eigenvalues --    0.89487   0.89868   0.90357   0.90928   0.91780
 Alpha virt. eigenvalues --    0.91901   0.92415   0.92676   0.93539   0.94332
 Alpha virt. eigenvalues --    0.94966   0.95810   0.96389   0.97123   0.97837
 Alpha virt. eigenvalues --    0.98409   0.98893   0.99800   1.00630   1.00750
 Alpha virt. eigenvalues --    1.02111   1.02333   1.03619   1.03938   1.04416
 Alpha virt. eigenvalues --    1.05861   1.06134   1.06483   1.06650   1.07519
 Alpha virt. eigenvalues --    1.08087   1.08683   1.09414   1.09709   1.11043
 Alpha virt. eigenvalues --    1.11854   1.13202   1.14238   1.15495   1.15703
 Alpha virt. eigenvalues --    1.16499   1.17967   1.20098   1.20664   1.22270
 Alpha virt. eigenvalues --    1.22741   1.24633   1.25135   1.25628   1.26216
 Alpha virt. eigenvalues --    1.28260   1.29050   1.29292   1.30099   1.30408
 Alpha virt. eigenvalues --    1.31791   1.32278   1.33409   1.34332   1.36415
 Alpha virt. eigenvalues --    1.37696   1.38011   1.40262   1.42706   1.43446
 Alpha virt. eigenvalues --    1.44750   1.46085   1.46932   1.48154   1.48364
 Alpha virt. eigenvalues --    1.50450   1.51019   1.51723   1.53359   1.53894
 Alpha virt. eigenvalues --    1.54206   1.55233   1.55805   1.56934   1.57244
 Alpha virt. eigenvalues --    1.57883   1.58486   1.59132   1.60110   1.60491
 Alpha virt. eigenvalues --    1.60658   1.61851   1.62485   1.63875   1.64612
 Alpha virt. eigenvalues --    1.65394   1.66076   1.67986   1.68393   1.69097
 Alpha virt. eigenvalues --    1.69571   1.70447   1.70873   1.71834   1.72640
 Alpha virt. eigenvalues --    1.73540   1.73824   1.74990   1.76315   1.76567
 Alpha virt. eigenvalues --    1.77327   1.78486   1.79675   1.80089   1.82393
 Alpha virt. eigenvalues --    1.83501   1.84505   1.85490   1.85693   1.86536
 Alpha virt. eigenvalues --    1.88255   1.89253   1.89669   1.90054   1.90530
 Alpha virt. eigenvalues --    1.92228   1.92572   1.93214   1.93548   1.94213
 Alpha virt. eigenvalues --    1.94957   1.95213   1.96563   1.97851   1.98732
 Alpha virt. eigenvalues --    2.00408   2.01119   2.01395   2.01819   2.02343
 Alpha virt. eigenvalues --    2.02583   2.04351   2.05705   2.06232   2.06481
 Alpha virt. eigenvalues --    2.08351   2.09315   2.09498   2.10231   2.11276
 Alpha virt. eigenvalues --    2.11650   2.12991   2.13489   2.15042   2.15138
 Alpha virt. eigenvalues --    2.17890   2.19872   2.20376   2.21855   2.23819
 Alpha virt. eigenvalues --    2.26517   2.26651   2.27017   2.28601   2.29527
 Alpha virt. eigenvalues --    2.31350   2.32722   2.33818   2.35371   2.37749
 Alpha virt. eigenvalues --    2.38512   2.39755   2.43877   2.45128   2.45710
 Alpha virt. eigenvalues --    2.46566   2.47505   2.49107   2.49414   2.49844
 Alpha virt. eigenvalues --    2.51079   2.53878   2.56559   2.57902   2.58521
 Alpha virt. eigenvalues --    2.59927   2.63081   2.63393   2.64431   2.65306
 Alpha virt. eigenvalues --    2.66191   2.66979   2.67998   2.68033   2.69262
 Alpha virt. eigenvalues --    2.70085   2.71535   2.72154   2.72910   2.73578
 Alpha virt. eigenvalues --    2.74341   2.75765   2.76235   2.77050   2.77690
 Alpha virt. eigenvalues --    2.78204   2.79160   2.79980   2.80560   2.81574
 Alpha virt. eigenvalues --    2.81807   2.82557   2.84808   2.85701   2.86910
 Alpha virt. eigenvalues --    2.89063   2.89821   2.91423   2.91552   2.92156
 Alpha virt. eigenvalues --    2.93418   2.94737   2.94997   2.96244   2.97737
 Alpha virt. eigenvalues --    2.98680   2.99799   3.01057   3.02792   3.05089
[...]
   444. RY*(  14) C  19                  0.00003     1.63771   
   445. RY*(  15) C  19                  0.00000     2.65651   
   446. RY*(  16) C  19                  0.00001     2.73932   
   447. RY*(  17) C  19                  0.00000    20.81980   
   448. RY*(   1) C  20                  0.00598     1.25832   
   449. RY*(   2) C  20                  0.00267     1.13892   
   450. RY*(   3) C  20                  0.00088     0.49438   
   451. RY*(   4) C  20                  0.00060     1.04899   
   452. RY*(   5) C  20                  0.00050     1.64680   
   453. RY*(   6) C  20                  0.00028     1.35741   
   454. RY*(   7) C  20                  0.00013     2.97284   
   455. RY*(   8) C  20                  0.00009     2.39491   
   456. RY*(   9) C  20                  0.00005     2.49735   
   457. RY*(  10) C  20                  0.00005     1.55720   
   458. RY*(  11) C  20                  0.00003     1.57643   
   459. RY*(  12) C  20                  0.00003     2.11815   
   460. RY*(  13) C  20                  0.00002     0.88966   
   461. RY*(  14) C  20                  0.00002     1.10185   
   462. RY*(  15) C  20                  0.00000     2.72900   
   463. RY*(  16) C  20                  0.00000    20.93495   
   464. RY*(  17) C  20                  0.00000     2.26159   
   465. RY*(   1) C  21                  0.00693     1.28277   
   466. RY*(   2) C  21                  0.00416     1.58641   
   467. RY*(   3) C  21                  0.00292     1.57890   
   468. RY*(   4) C  21                  0.00180     1.74143   
   469. RY*(   5) C  21                  0.00074     1.61521   
   470. RY*(   6) C  21                  0.00038     0.64811   
   471. RY*(   7) C  21                  0.00036     1.16120   
   472. RY*(   8) C  21                  0.00024     2.17164   
   473. RY*(   9) C  21                  0.00014     2.46825   
   474. RY*(  10) C  21                  0.00010     4.95732   
   475. RY*(  11) C  21                  0.00005     1.29459   
   476. RY*(  12) C  21                  0.00002     0.66415   
   477. RY*(  13) C  21                  0.00003     1.88067   
   478. RY*(  14) C  21                  0.00002     1.20182   
   479. RY*(  15) C  21                  0.00000     2.58974   
   480. RY*(  16) C  21                  0.00000    19.08996   
   481. RY*(  17) C  21                  0.00000     1.91973   
   482. RY*(   1) C  22                  0.00452     1.20099   
   483. RY*(   2) C  22                  0.00166     1.49847   
   484. RY*(   3) C  22                  0.00142     0.47123   
   485. RY*(   4) C  22                  0.00064     0.90980   
   486. RY*(   5) C  22                  0.00057     1.53685   
   487. RY*(   6) C  22                  0.00021     0.86673   
   488. RY*(   7) C  22                  0.00014     2.32661   
   489. RY*(   8) C  22                  0.00007     2.54550   
   490. RY*(   9) C  22                  0.00007     2.54505   
   491. RY*(  10) C  22                  0.00006     1.48988   
   492. RY*(  11) C  22                  0.00004     1.87502   
   493. RY*(  12) C  22                  0.00004     3.43855   
   494. RY*(  13) C  22                  0.00002     1.80414   
   495. RY*(  14) C  22                  0.00003     1.62485   
   496. RY*(  15) C  22                  0.00000     2.77114   
   497. RY*(  16) C  22                  0.00000    18.84463   
   498. RY*(  17) C  22                  0.00001     2.55719   
   499. RY*(   1) C  23                  0.00582     1.16552   
   500. RY*(   2) C  23                  0.00273     1.07209   
   501. RY*(   3) C  23                  0.00106     0.79541   
   502. RY*(   4) C  23                  0.00077     1.44349   
   503. RY*(   5) C  23                  0.00053     0.99364   
   504. RY*(   6) C  23                  0.00027     1.24543   
   505. RY*(   7) C  23                  0.00017     1.15405   
   506. RY*(   8) C  23                  0.00014     3.37389   
   507. RY*(   9) C  23                  0.00014     1.77675   
   508. RY*(  10) C  23                  0.00010     1.06174   
   509. RY*(  11) C  23                  0.00007     1.77454   
   510. RY*(  12) C  23                  0.00004     2.48556   
   511. RY*(  13) C  23                  0.00004     2.35291   
   512. RY*(  14) C  23                  0.00004     1.19688   
   513. RY*(  15) C  23                  0.00001     2.74335   
   514. RY*(  16) C  23                  0.00000    21.21843   
   515. RY*(  17) C  23                  0.00001     2.82588   
   516. RY*(   1) O  24                  0.00454     0.61564   
   517. RY*(   2) O  24                  0.00358     0.74378   
   518. RY*(   3) O  24                  0.00092     1.30765   
   519. RY*(   4) O  24                  0.00064     0.65959   
   520. RY*(   5) O  24                  0.00026     1.70508   
   521. RY*(   6) O  24                  0.00020     2.35804   
   522. RY*(   7) O  24                  0.00013     1.32732   
   523. RY*(   8) O  24                  0.00005     1.25363   
   524. RY*(   9) O  24                  0.00005     1.38483   
   525. RY*(  10) O  24                  0.00004     2.66454   
   526. RY*(  11) O  24                  0.00002     5.18262   
   527. RY*(  12) O  24                  0.00000     4.97733   
   528. RY*(  13) O  24                  0.00000     3.03130   
   529. RY*(  14) O  24                  0.00001     3.02421   
   530. RY*(  15) O  24                  0.00000     5.05707   
   531. RY*(  16) O  24                  0.00000    49.17064   
   532. RY*(  17) O  24                  0.00001     2.95428   
   533. RY*(   1) C  25                  0.00293     1.24956   
   534. RY*(   2) C  25                  0.00210     1.39240   
   535. RY*(   3) C  25                  0.00154     0.83825   
   536. RY*(   4) C  25                  0.00048     1.30820   
   537. RY*(   5) C  25                  0.00035     0.57633   
   538. RY*(   6) C  25                  0.00014     1.35158   
   539. RY*(   7) C  25                  0.00002     0.65691   
   540. RY*(   8) C  25                  0.00000     1.15302   
   541. RY*(   9) C  25                  0.00000     2.36105   
   542. RY*(  10) C  25                  0.00001     0.96336   
   543. RY*(  11) C  25                  0.00001     1.82192   
   544. RY*(  12) C  25                  0.00000     2.55247   
   545. RY*(  13) C  25                  0.00001     1.53880   
   546. RY*(  14) C  25                  0.00001     1.66692   
   547. RY*(  15) C  25                  0.00001     1.69153   
   548. RY*(  16) C  25                  0.00001     2.47852   
   549. RY*(  17) C  25                  0.00000    23.17441   
   550. RY*(   1) H  26                  0.00139     0.84814   
   551. RY*(   2) H  26                  0.00026     1.71728   
   552. RY*(   3) H  26                  0.00019     1.97948   
   553. RY*(   4) H  26                  0.00013     1.63345   
   554. RY*(   5) H  26                  0.00011     2.34402   
   555. RY*(   6) H  26                  0.00009     1.29352   
   556. RY*(   1) H  27                  0.00226     0.54853   
   557. RY*(   2) H  27                  0.00027     1.92513   
   558. RY*(   3) H  27                  0.00023     1.67760   
   559. RY*(   4) H  27                  0.00019     1.32798   
   560. RY*(   5) H  27                  0.00013     2.24283   
   561. RY*(   6) H  27                  0.00009     2.20313   
   562. RY*(   1) H  28                  0.00131     0.51188   
   563. RY*(   2) H  28                  0.00033     1.86394   
   564. RY*(   3) H  28                  0.00024     1.91677   
   565. RY*(   4) H  28                  0.00011     1.72849   
   566. RY*(   5) H  28                  0.00006     1.42771   
   567. RY*(   6) H  28                  0.00005     1.94119   
   568. RY*(   1) H  29                  0.00084     0.85624   
   569. RY*(   2) H  29                  0.00022     1.72964   
   570. RY*(   3) H  29                  0.00018     1.97197   
   571. RY*(   4) H  29                  0.00011     1.86191   
   572. RY*(   5) H  29                  0.00006     0.51781   
   573. RY*(   6) H  29                  0.00004     2.31802   
   574. RY*(   1) H  30                  0.00077     0.76919   
   575. RY*(   2) H  30                  0.00023     2.20581   
   576. RY*(   3) H  30                  0.00018     1.57641   
   577. RY*(   4) H  30                  0.00015     1.79366   
   578. RY*(   5) H  30                  0.00007     0.40774   
   579. RY*(   6) H  30                  0.00003     2.39768   
   580. RY*(   1) H  31                  0.00075     0.76615   
   581. RY*(   2) H  31                  0.00022     2.12451   
   582. RY*(   3) H  31                  0.00019     1.59582   
   583. RY*(   4) H  31                  0.00017     1.66778   
   584. RY*(   5) H  31                  0.00008     0.68000   
   585. RY*(   6) H  31                  0.00004     2.36413   
   586. RY*(   1) H  32                  0.00160     0.73813   
   587. RY*(   2) H  32                  0.00068     1.61575   
   588. RY*(   3) H  32                  0.00042     1.60662   
   589. RY*(   4) H  32                  0.00020     1.97197   
   590. RY*(   5) H  32                  0.00014     1.26079   
   591. RY*(   6) H  32                  0.00005     2.45389   
   592. RY*(   1) H  33                  0.00173     1.64377   
   593. RY*(   2) H  33                  0.00130     1.80128   
   594. RY*(   3) H  33                  0.00065     1.55814   
   595. RY*(   4) H  33                  0.00030     1.29724   
   596. RY*(   5) H  33                  0.00016     0.48047   
   597. RY*(   6) H  33                  0.00001     2.50711   
   598. RY*(   1) H  34                  0.00091     0.90065   
   599. RY*(   2) H  34                  0.00021     2.16342   
   600. RY*(   3) H  34                  0.00020     1.54854   
   601. RY*(   4) H  34                  0.00012     2.04496   
   602. RY*(   5) H  34                  0.00009     0.46470   
   603. RY*(   6) H  34                  0.00004     2.34370   
   604. RY*(   1) H  35                  0.00092     0.92062   
   605. RY*(   2) H  35                  0.00021     1.95307   
   606. RY*(   3) H  35                  0.00016     1.60445   
   607. RY*(   4) H  35                  0.00013     1.91178   
   608. RY*(   5) H  35                  0.00003     0.70401   
   609. RY*(   6) H  35                  0.00004     2.23923   
   610. RY*(   1) H  36                  0.00087     0.70937   
   611. RY*(   2) H  36                  0.00023     1.59457   
   612. RY*(   3) H  36                  0.00019     2.21659   
   613. RY*(   4) H  36                  0.00011     0.52743   
   614. RY*(   5) H  36                  0.00009     2.04222   
   615. RY*(   6) H  36                  0.00003     2.32927   
   616. RY*(   1) H  37                  0.00098     1.41136   
   617. RY*(   2) H  37                  0.00023     1.48845   
   618. RY*(   3) H  37                  0.00017     1.55284   
   619. RY*(   4) H  37                  0.00013     1.94833   
   620. RY*(   5) H  37                  0.00008     1.22546   
   621. RY*(   6) H  37                  0.00004     1.92247   
   622. RY*(   1) H  38                  0.00150     0.44995   
   623. RY*(   2) H  38                  0.00027     1.79488   
   624. RY*(   3) H  38                  0.00014     1.74936   
   625. RY*(   4) H  38                  0.00013     1.99890   
   626. RY*(   5) H  38                  0.00003     0.92414   
   627. RY*(   6) H  38                  0.00002     2.23578   
   628. RY*(   1) H  39                  0.00148     0.45200   
   629. RY*(   2) H  39                  0.00026     1.79708   
   630. RY*(   3) H  39                  0.00014     1.79040   
   631. RY*(   4) H  39                  0.00013     1.96128   
   632. RY*(   5) H  39                  0.00003     0.93230   
   633. RY*(   6) H  39                  0.00002     2.22457   
   634. RY*(   1) H  40                  0.00059     0.44911   
   635. RY*(   2) H  40                  0.00017     1.71468   
   636. RY*(   3) H  40                  0.00013     1.91963   
   637. RY*(   4) H  40                  0.00010     2.03613   
   638. RY*(   5) H  40                  0.00004     1.37720   
   639. RY*(   6) H  40                  0.00002     1.52455   
   640. BD*(   1) C   1 - C   2          0.02597     0.52972   
   641. BD*(   2) C   1 - C   2          0.39511    -0.00881  652(v),647(v),110(g),658(r)
                                                    129(g),656(v),144(v),128(g)
                                                    655(v)
   642. BD*(   1) C   1 - C   6          0.01589     0.54694   
   643. BD*(   1) C   1 - H  28          0.01289     0.40902   
   644. BD*(   1) C   2 - C   3          0.02345     0.52859   
   645. BD*(   1) C   2 - N   7          0.02910     0.38055   
   646. BD*(   1) C   3 - C   4          0.01549     0.54860   
   647. BD*(   2) C   3 - C   4          0.31982    -0.00236  641(v),652(v),163(g),145(g)
   648. BD*(   1) C   3 - H  29          0.01230     0.40588   
   649. BD*(   1) C   4 - C   5          0.02614     0.54006   
   650. BD*(   1) C   4 - H  30          0.01357     0.41338   
   651. BD*(   1) C   5 - C   6          0.02597     0.54193   
   652. BD*(   2) C   5 - C   6          0.38659    -0.01146  641(v),647(v),195(g),178(g)
                                                    161(v),401(v)
   653. BD*(   1) C   5 -Br  18          0.03391     0.07240   
   654. BD*(   1) C   6 - H  31          0.01368     0.41230   
   655. BD*(   1) N   7 - C   8          0.02728     0.44739   
   656. BD*(   1) N   7 - H  32          0.02206     0.35775   
   657. BD*(   1) C   8 - C   9          0.02687     0.58786   
   658. BD*(   2) C   8 - C   9          0.29814    -0.00346  667(v),246(g),664(v),663(v)
                                                    230(g),641(r),312(v)
   659. BD*(   1) C   8 - C  10          0.03626     0.35552   
   660. BD*(   1) C   9 - C  11          0.08028     0.43196   
   661. BD*(   1) C   9 -Cl  13          0.02807     0.14290   
   662. BD*(   1) C  10 - O  12          0.02857     0.24315   
   663. BD*(   1) C  10 - C  15          0.05266     0.32149   
   664. BD*(   1) C  10 - H  26          0.02707     0.37313   
   665. BD*(   1) C  11 - O  12          0.12151     0.30680  662(g),659(v),279(g),663(v)
                                                    661(v),657(v),287(g),307(g)
                                                    284(g)
   666. BD*(   1) C  11 - O  14          0.01281     0.63186   
   667. BD*(   2) C  11 - O  14          0.28353     0.00933  658(v),280(g),334(g)
   668. BD*(   1) C  15 - C  16          0.03532     0.40011   
   669. BD*(   1) C  15 - O  17          0.03536     0.26862   
   670. BD*(   1) C  15 - H  27          0.02430     0.37536   
   671. BD*(   1) C  16 - C  19          0.02256     0.56257   
   672. BD*(   1) C  16 - C  23          0.02520     0.57216   
   673. BD*(   2) C  16 - C  23          0.36040     0.02663  676(v),681(v),669(v),501(g)
                                                    663(v),484(v),369(g),433(v)
   674. BD*(   1) O  17 - H  33          0.00912     0.42094   
   675. BD*(   1) C  19 - C  20          0.01248     0.58527   
   676. BD*(   2) C  19 - C  20          0.30984     0.02572  673(v),681(v),450(g),435(g)
   677. BD*(   1) C  19 - H  34          0.01399     0.43421   
   678. BD*(   1) C  20 - C  21          0.02303     0.55249   
   679. BD*(   1) C  20 - H  35          0.01266     0.43329   
   680. BD*(   1) C  21 - C  22          0.02923     0.55344   
   681. BD*(   2) C  21 - C  22          0.38564     0.01588  676(v),673(v),484(g),470(g)
                                                    467(g),450(v)
   682. BD*(   1) C  21 - O  24          0.03054     0.35554   
   683. BD*(   1) C  22 - C  23          0.01445     0.57213   
   684. BD*(   1) C  22 - H  36          0.01373     0.43316   
   685. BD*(   1) C  23 - H  37          0.01516     0.45221   
   686. BD*(   1) O  24 - C  25          0.00930     0.27529   
   687. BD*(   1) C  25 - H  38          0.01854     0.36709   
   688. BD*(   1) C  25 - H  39          0.01845     0.36761   
   689. BD*(   1) C  25 - H  40          0.00890     0.38694   
       -------------------------------
              Total Lewis  209.79457  ( 98.0348%)
        Valence non-Lewis    3.82318  (  1.7865%)
        Rydberg non-Lewis    0.38225  (  0.1786%)
       -------------------------------
            Total unit  1  214.00000  (100.0000%)
           Charge unit  1    0.00000
 Leave Link  607 at Sun Jul 07 02:47:39 2019, MaxMem=   209715200 cpu:        12.0
 (Enter C:\G09W\l9999.exe)
 1|1|UNPC-CCSC-02011910|FOpt|RB3LYP|6-311++G(d,p)|C18H15Br1Cl1N1O4|EDUA
 RDO.MELO|07-Jul-2019|0||#p opt b3lyp/6-311++g(d,p) pop=nbo geom=connec
 tivity||9g.log||0,1|C,1.8809877663,-0.7073623804,-0.9810807091|C,1.796
 8122795,-1.5194721643,0.1542916186|C,2.7588767293,-1.3847284369,1.1621
 942945|C,3.7811909245,-0.4494641689,1.0451390929|C,3.8325678212,0.3717
 478937,-0.0781466575|C,2.8875069487,0.2483866572,-1.0914294028|N,0.797
 134569,-2.5092100169,0.2964495479|C,-0.5093773464,-2.4576003135,-0.079
 6778617|C,-1.3636970245,-3.5020093146,-0.1590817609|C,-1.3002474661,-1
 .1928765911,-0.3531093515|C,-2.7042619411,-3.0436008482,-0.5011313962|
 O,-2.6254484385,-1.663940061,-0.6494486253|Cl,-0.9791752557,-5.1603825
 309,0.1367157851|O,-3.7305022424,-3.6405482618,-0.6575817378|C,-1.3394
 716575,-0.2206395149,0.8563003063|C,-1.9297207765,1.140309443,0.533362
 5033|O,-1.961281193,-0.8521686175,1.972439033|Br,5.2246577301,1.676209
 4485,-0.2345370784|C,-1.3052677451,2.2875556996,1.045162236|C,-1.82274
 82086,3.5532818159,0.8217321053|C,-2.9959829302,3.7072855282,0.0729474
 898|C,-3.6347185475,2.5771654324,-0.4435838928|C,-3.0997895461,1.30870
 16535,-0.2111556392|O,-3.4292210737,4.9875784722,-0.0968519928|C,-4.61
 81964617,5.2125078736,-0.8449282472|H,-0.9402687527,-0.6573943208,-1.2
 333856734|H,-0.3042484862,-0.0672043201,1.1681810423|H,1.1838607103,-0
 .8361235035,-1.7988645634|H,2.6985914186,-2.007039959,2.0481972461|H,4
 .5206226459,-0.3528488555,1.8294579997|H,2.9447855686,0.8741724152,-1.
 9725559988|H,1.0937554376,-3.3927559358,0.6899737903|H,-2.912383042,-0
 .8806699903,1.8136811256|H,-0.3984808673,2.1852065645,1.6325632712|H,-
 1.3370015923,4.4375018537,1.2163567371|H,-4.541464219,2.6657812358,-1.
 0266312514|H,-3.6097174674,0.4467536001,-0.6232645125|H,-4.5132300181,
 4.8603336994,-1.8765886344|H,-5.4813070011,4.7262697186,-0.3782147025|
 H,-4.7682812491,6.2906931006,-0.8455255358||Version=IA32W-G09RevD.01|S
 tate=1-A|HF=-4085.2344624|RMSD=4.886e-009|RMSF=9.475e-006|Dipole=1.146
 6691,1.2450197,-0.2050759|Quadrupole=-0.5840154,-3.4027914,3.9868068,-
 23.8159669,5.0060466,-7.1645884|PG=C01 [X(C18H15Br1Cl1N1O4)]||@


 THE UNDERLYING PHYSICAL LAWS NECESSARY FOR THE 
 MATHEMATICAL THEORY OF A LARGE PART OF PHYSICS AND THE
 WHOLE OF CHEMISTRY ARE THUS COMPLETELY KNOWN, AND THE
 DIFFICULTY IS ONLY THAT THE EXACT APPLICATION OF THESE
 LAWS LEADS TO EQUATIONS MUCH TOO COMPLICATED 
 TO BE SOLUBLE.

                                        -- P. A. M. DIRAC, 1929
 Job cpu time:       0 days  6 hours 50 minutes 22.0 seconds.
 File lengths (MBytes):  RWF=    295 Int=      0 D2E=      0 Chk=     37 Scr=      1
 Normal termination of Gaussian 09 at Sun Jul 07 02:47:39 2019.
