 Entering Link 1 = C:\G09W\l1.exe PID=      2328.
  
 Copyright (c) 1988,1990,1992,1993,1995,1998,2003,2009,2013,
            Gaussian, Inc.  All Rights Reserved.
  
 This is part of the Gaussian(R) 09 program.  It is based on
 the Gaussian(R) 03 system (copyright 2003, Gaussian, Inc.),
 the Gaussian(R) 98 system (copyright 1998, Gaussian, Inc.),
 the Gaussian(R) 94 system (copyright 1995, Gaussian, Inc.),
 the Gaussian 92(TM) system (copyright 1992, Gaussian, Inc.),
 the Gaussian 90(TM) system (copyright 1990, Gaussian, Inc.),
 the Gaussian 88(TM) system (copyright 1988, Gaussian, Inc.),
 the Gaussian 86(TM) system (copyright 1986, Carnegie Mellon
 University), and the Gaussian 82(TM) system (copyright 1983,
 Carnegie Mellon University). Gaussian is a federally registered
 trademark of Gaussian, Inc.
  
 This software contains proprietary and confidential information,
 including trade secrets, belonging to Gaussian, Inc.
  
 This software is provided under written license and may be
 used, copied, transmitted, or stored only in accord with that
 written license.
  
 The following legend is applicable only to US Government
 contracts under FAR:
  
                    RESTRICTED RIGHTS LEGEND
  
 Use, reproduction and disclosure by the US Government is
 subject to restrictions as set forth in subparagraphs (a)
 and (c) of the Commercial Computer Software - Restricted
 Rights clause in FAR 52.227-19.
  
 Gaussian, Inc.
 340 Quinnipiac St., Bldg. 40, Wallingford CT 06492
  
  
 ---------------------------------------------------------------
 Warning -- This program may not be used in any manner that
 competes with the business of Gaussian, Inc. or will provide
 assistance to any competitor of Gaussian, Inc.  The licensee
 of this program is prohibited from giving any competitor of
 Gaussian, Inc. access to this program.  By using this program,
 the user acknowledges that Gaussian, Inc. is engaged in the
 business of creating and licensing software in the field of
 computational chemistry and represents and warrants to the
 licensee that it is not a competitor of Gaussian, Inc. and that
 it will not use this program in any manner prohibited above.
 ---------------------------------------------------------------
  

 Cite this work as:
 Gaussian 09, Revision D.01,
 M. J. Frisch, G. W. Trucks, H. B. Schlegel, G. E. Scuseria, 
 M. A. Robb, J. R. Cheeseman, G. Scalmani, V. Barone, B. Mennucci, 
 G. A. Petersson, H. Nakatsuji, M. Caricato, X. Li, H. P. Hratchian, 
 A. F. Izmaylov, J. Bloino, G. Zheng, J. L. Sonnenberg, M. Hada, 
 M. Ehara, K. Toyota, R. Fukuda, J. Hasegawa, M. Ishida, T. Nakajima, 
 Y. Honda, O. Kitao, H. Nakai, T. Vreven, J. A. Montgomery, Jr., 
 J. E. Peralta, F. Ogliaro, M. Bearpark, J. J. Heyd, E. Brothers, 
 K. N. Kudin, V. N. Staroverov, T. Keith, R. Kobayashi, J. Normand, 
 K. Raghavachari, A. Rendell, J. C. Burant, S. S. Iyengar, J. Tomasi, 
 M. Cossi, N. Rega, J. M. Millam, M. Klene, J. E. Knox, J. B. Cross, 
 V. Bakken, C. Adamo, J. Jaramillo, R. Gomperts, R. E. Stratmann, 
 O. Yazyev, A. J. Austin, R. Cammi, C. Pomelli, J. W. Ochterski, 
 R. L. Martin, K. Morokuma, V. G. Zakrzewski, G. A. Voth, 
 P. Salvador, J. J. Dannenberg, S. Dapprich, A. D. Daniels, 
 O. Farkas, J. B. Foresman, J. V. Ortiz, J. Cioslowski, 
 and D. J. Fox, Gaussian, Inc., Wallingford CT, 2013.
 
 ******************************************
 Gaussian 09:  IA32W-G09RevD.01 24-Apr-2013
                07-Jul-2019 
 ******************************************
 %nprocshared=4
 Will use up to    4 processors via shared memory.
 %mem=1600MB
 ----------------------------------------------------
 #p opt b3lyp/6-311++g(d,p) pop=nbo geom=connectivity
 ----------------------------------------------------
 1/14=-1,18=20,19=15,26=3,38=1,57=2/1,3;
 2/9=110,12=2,17=6,18=5,40=1/2;
 3/5=4,6=6,7=1111,11=2,16=1,25=1,30=1,71=1,74=-5/1,2,3;
 4//1;
 5/5=2,38=5/2;
 6/7=2,8=2,9=2,10=2,28=1,40=1/1,7;
 7//1,2,3,16;
 1/14=-1,18=20,19=15,26=3/3(2);
 2/9=110/2;
 99//99;
 2/9=110/2;
 3/5=4,6=6,7=1111,11=2,16=1,25=1,30=1,71=1,74=-5/1,2,3;
 4/5=5,16=3,69=1/1;
 5/5=2,38=5/2;
 7//1,2,3,16;
 1/14=-1,18=20,19=15,26=3/3(-5);
 2/9=110/2;
 6/7=2,8=2,9=2,10=2,19=2,28=1,40=1/1,7;
 99/9=1/99;
 Leave Link    1 at Sun Jul 07 02:47:40 2019, MaxMem=   209715200 cpu:         0.0
 (Enter C:\G09W\l101.exe)
 ------
 9h.log
 ------
 Symbolic Z-matrix:
 Charge =  0 Multiplicity = 1
 C                     1.9838   -1.03354  -1.0764 
 C                     1.67054  -1.55762   0.1692 
 C                     2.49216  -1.28282   1.2538 
 C                     3.61299  -0.48742   1.09871 
 C                     3.89944   0.04782  -0.14447 
 C                     3.09124  -0.21692  -1.23334 
 N                     0.54763  -2.40504   0.35323 
 C                    -0.72227  -2.15022  -0.0349 
 C                    -1.71868  -3.02113  -0.19302 
 C                    -1.27781  -0.76169  -0.28455 
 C                    -2.9427   -2.31275  -0.55134 
 O                    -2.6223   -1.00139  -0.64197 
 Cl                   -1.64684  -4.72498   0.01032 
 O                    -4.0335   -2.71398  -0.75169 
 C                    -1.22725   0.14691   0.959 
 C                    -1.57919   1.59309   0.64397 
 O                    -2.00241  -0.40462   1.98029 
 Br                    5.42322   1.15366  -0.35719 
 C                    -0.63813   2.57901   0.86521 
 C                    -0.95132   3.90852   0.59606 
 C                    -2.19116   4.25291   0.11422 
 C                    -3.14526   3.26029  -0.11145 
 C                    -2.84168   1.93604   0.15065 
 O                    -4.3282    3.68715  -0.5906 
 C                    -5.34854   2.76458  -0.86074 
 H                    -0.78545  -0.27496  -1.11557 
 H                    -0.21073   0.13213   1.32543 
 H                     1.37572  -1.2744   -1.92947 
 H                     2.24626  -1.6866    2.21927 
 H                     4.24847  -0.27677   1.9375 
 H                     3.32925   0.19283  -2.19625 
 H                     0.73702  -3.34776   0.61325 
 H                    -2.91967  -0.27302   1.80066 
 H                     0.33355   2.32557   1.25045 
 H                    -0.21744   4.67542   0.77052 
 H                    -2.45047   5.27362  -0.09746 
 H                    -3.56081   1.16673  -0.04589 
 H                    -5.04346   2.04233  -1.61076 
 H                    -5.65668   2.23971   0.03796 
 H                    -6.1814    3.33922  -1.23797 
 
 NAtoms=     40 NQM=       40 NQMF=       0 NMMI=      0 NMMIF=      0
                NMic=       0 NMicF=      0.
                    Isotopes and Nuclear Properties:
 (Nuclear quadrupole moments (NQMom) in fm**2, nuclear magnetic moments (NMagM)
  in nuclear magnetons)

  Atom         1           2           3           4           5           6           7           8           9          10
 IAtWgt=          12          12          12          12          12          12          14          12          12          12
 AtmWgt=  12.0000000  12.0000000  12.0000000  12.0000000  12.0000000  12.0000000  14.0030740  12.0000000  12.0000000  12.0000000
 NucSpn=           0           0           0           0           0           0           2           0           0           0
 AtZEff=   0.0000000   0.0000000   0.0000000   0.0000000   0.0000000   0.0000000   0.0000000   0.0000000   0.0000000   0.0000000
 NQMom=    0.0000000   0.0000000   0.0000000   0.0000000   0.0000000   0.0000000   2.0440000   0.0000000   0.0000000   0.0000000
 NMagM=    0.0000000   0.0000000   0.0000000   0.0000000   0.0000000   0.0000000   0.4037610   0.0000000   0.0000000   0.0000000
 AtZNuc=   6.0000000   6.0000000   6.0000000   6.0000000   6.0000000   6.0000000   7.0000000   6.0000000   6.0000000   6.0000000

  Atom        11          12          13          14          15          16          17          18          19          20
 IAtWgt=          12          16          35          16          12          12          16          79          12          12
 AtmWgt=  12.0000000  15.9949146  34.9688527  15.9949146  12.0000000  12.0000000  15.9949146  78.9183361  12.0000000  12.0000000
 NucSpn=           0           0           3           0           0           0           0           3           0           0
 AtZEff=   0.0000000   0.0000000   0.0000000   0.0000000   0.0000000   0.0000000   0.0000000   0.0000000   0.0000000   0.0000000
 NQMom=    0.0000000   0.0000000  -8.1650000   0.0000000   0.0000000   0.0000000   0.0000000  31.3000000   0.0000000   0.0000000
 NMagM=    0.0000000   0.0000000   0.8218740   0.0000000   0.0000000   0.0000000   0.0000000   2.1063990   0.0000000   0.0000000
 AtZNuc=   6.0000000   8.0000000  17.0000000   8.0000000   6.0000000   6.0000000   8.0000000  35.0000000   6.0000000   6.0000000

  Atom        21          22          23          24          25          26          27          28          29          30
 IAtWgt=          12          12          12          16          12           1           1           1           1           1
 AtmWgt=  12.0000000  12.0000000  12.0000000  15.9949146  12.0000000   1.0078250   1.0078250   1.0078250   1.0078250   1.0078250
 NucSpn=           0           0           0           0           0           1           1           1           1           1
 AtZEff=   0.0000000   0.0000000   0.0000000   0.0000000   0.0000000   0.0000000   0.0000000   0.0000000   0.0000000   0.0000000
 NQMom=    0.0000000   0.0000000   0.0000000   0.0000000   0.0000000   0.0000000   0.0000000   0.0000000   0.0000000   0.0000000
 NMagM=    0.0000000   0.0000000   0.0000000   0.0000000   0.0000000   2.7928460   2.7928460   2.7928460   2.7928460   2.7928460
 AtZNuc=   6.0000000   6.0000000   6.0000000   8.0000000   6.0000000   1.0000000   1.0000000   1.0000000   1.0000000   1.0000000

  Atom        31          32          33          34          35          36          37          38          39          40
 IAtWgt=           1           1           1           1           1           1           1           1           1           1
 AtmWgt=   1.0078250   1.0078250   1.0078250   1.0078250   1.0078250   1.0078250   1.0078250   1.0078250   1.0078250   1.0078250
 NucSpn=           1           1           1           1           1           1           1           1           1           1
 AtZEff=   0.0000000   0.0000000   0.0000000   0.0000000   0.0000000   0.0000000   0.0000000   0.0000000   0.0000000   0.0000000
 NQMom=    0.0000000   0.0000000   0.0000000   0.0000000   0.0000000   0.0000000   0.0000000   0.0000000   0.0000000   0.0000000
 NMagM=    2.7928460   2.7928460   2.7928460   2.7928460   2.7928460   2.7928460   2.7928460   2.7928460   2.7928460   2.7928460
 AtZNuc=   1.0000000   1.0000000   1.0000000   1.0000000   1.0000000   1.0000000   1.0000000   1.0000000   1.0000000   1.0000000
 Leave Link  101 at Sun Jul 07 02:47:40 2019, MaxMem=   209715200 cpu:         0.0
 (Enter C:\G09W\l103.exe)

 GradGradGradGradGradGradGradGradGradGradGradGradGradGradGradGradGradGrad
 Berny optimization.
 Initialization pass.
                           ----------------------------
                           !    Initial Parameters    !
                           ! (Angstroms and Degrees)  !
 --------------------------                            --------------------------
 ! Name  Definition              Value          Derivative Info.                !
 --------------------------------------------------------------------------------
 ! R1    R(1,2)                  1.3872         estimate D2E/DX2                !
 ! R2    R(1,6)                  1.3849         estimate D2E/DX2                !
 ! R3    R(1,28)                 1.0749         estimate D2E/DX2                !
 ! R4    R(2,3)                  1.3881         estimate D2E/DX2                !
 ! R5    R(2,7)                  1.4188         estimate D2E/DX2                !
 ! R6    R(3,4)                  1.3831         estimate D2E/DX2                !
 ! R7    R(3,29)                 1.075          estimate D2E/DX2                !
 ! R8    R(4,5)                  1.3835         estimate D2E/DX2                !
 ! R9    R(4,30)                 1.0732         estimate D2E/DX2                !
 ! R10   R(5,6)                  1.3816         estimate D2E/DX2                !
 ! R11   R(5,18)                 1.8947         estimate D2E/DX2                !
 ! R12   R(6,31)                 1.0732         estimate D2E/DX2                !
 ! R13   R(7,8)                  1.3521         estimate D2E/DX2                !
 ! R14   R(7,32)                 0.9961         estimate D2E/DX2                !
 ! R15   R(8,9)                  1.3328         estimate D2E/DX2                !
 ! R16   R(8,10)                 1.5162         estimate D2E/DX2                !
 ! R17   R(9,11)                 1.4589         estimate D2E/DX2                !
 ! R18   R(9,13)                 1.7174         estimate D2E/DX2                !
 ! R19   R(10,12)                1.4117         estimate D2E/DX2                !
 ! R20   R(10,15)                1.5409         estimate D2E/DX2                !
 ! R21   R(10,26)                1.0816         estimate D2E/DX2                !
 ! R22   R(11,12)                1.353          estimate D2E/DX2                !
 ! R23   R(11,14)                1.1794         estimate D2E/DX2                !
 ! R24   R(15,16)                1.5214         estimate D2E/DX2                !
 ! R25   R(15,17)                1.3957         estimate D2E/DX2                !
 ! R26   R(15,27)                1.0806         estimate D2E/DX2                !
 ! R27   R(16,19)                1.3808         estimate D2E/DX2                !
 ! R28   R(16,23)                1.3982         estimate D2E/DX2                !
 ! R29   R(17,33)                0.9439         estimate D2E/DX2                !
 ! R30   R(19,20)                1.3922         estimate D2E/DX2                !
 ! R31   R(19,34)                1.0756         estimate D2E/DX2                !
 ! R32   R(20,21)                1.374          estimate D2E/DX2                !
 ! R33   R(20,35)                1.0757         estimate D2E/DX2                !
 ! R34   R(21,22)                1.3952         estimate D2E/DX2                !
 ! R35   R(21,36)                1.0742         estimate D2E/DX2                !
 ! R36   R(22,23)                1.3836         estimate D2E/DX2                !
 ! R37   R(22,24)                1.3458         estimate D2E/DX2                !
 ! R38   R(23,37)                1.0713         estimate D2E/DX2                !
 ! R39   R(24,25)                1.4019         estimate D2E/DX2                !
 ! R40   R(25,38)                1.085          estimate D2E/DX2                !
 ! R41   R(25,39)                1.0854         estimate D2E/DX2                !
 ! R42   R(25,40)                1.0799         estimate D2E/DX2                !
 ! A1    A(2,1,6)              120.3386         estimate D2E/DX2                !
 ! A2    A(2,1,28)             120.0133         estimate D2E/DX2                !
 ! A3    A(6,1,28)             119.6396         estimate D2E/DX2                !
 ! A4    A(1,2,3)              119.5468         estimate D2E/DX2                !
 ! A5    A(1,2,7)              121.3894         estimate D2E/DX2                !
 ! A6    A(3,2,7)              119.0356         estimate D2E/DX2                !
 ! A7    A(2,3,4)              120.3897         estimate D2E/DX2                !
 ! A8    A(2,3,29)             119.4705         estimate D2E/DX2                !
 ! A9    A(4,3,29)             120.1378         estimate D2E/DX2                !
 ! A10   A(3,4,5)              119.4085         estimate D2E/DX2                !
 ! A11   A(3,4,30)             120.3368         estimate D2E/DX2                !
 ! A12   A(5,4,30)             120.2503         estimate D2E/DX2                !
 ! A13   A(4,5,6)              120.8597         estimate D2E/DX2                !
 ! A14   A(4,5,18)             119.5504         estimate D2E/DX2                !
 ! A15   A(6,5,18)             119.5896         estimate D2E/DX2                !
 ! A16   A(1,6,5)              119.4353         estimate D2E/DX2                !
 ! A17   A(1,6,31)             120.2758         estimate D2E/DX2                !
 ! A18   A(5,6,31)             120.2803         estimate D2E/DX2                !
 ! A19   A(2,7,8)              126.4086         estimate D2E/DX2                !
 ! A20   A(2,7,32)             116.6578         estimate D2E/DX2                !
 ! A21   A(8,7,32)             115.5864         estimate D2E/DX2                !
 ! A22   A(7,8,9)              127.8113         estimate D2E/DX2                !
 ! A23   A(7,8,10)             124.3307         estimate D2E/DX2                !
 ! A24   A(9,8,10)             107.7552         estimate D2E/DX2                !
 ! A25   A(8,9,11)             109.8224         estimate D2E/DX2                !
 ! A26   A(8,9,13)             127.082          estimate D2E/DX2                !
 ! A27   A(11,9,13)            123.0848         estimate D2E/DX2                !
 ! A28   A(8,10,12)            103.6005         estimate D2E/DX2                !
 ! A29   A(8,10,15)            113.2708         estimate D2E/DX2                !
 ! A30   A(8,10,26)            111.8274         estimate D2E/DX2                !
 ! A31   A(12,10,15)           109.6147         estimate D2E/DX2                !
 ! A32   A(12,10,26)           108.3862         estimate D2E/DX2                !
 ! A33   A(15,10,26)           109.8617         estimate D2E/DX2                !
 ! A34   A(9,11,12)            106.7611         estimate D2E/DX2                !
 ! A35   A(9,11,14)            130.7315         estimate D2E/DX2                !
 ! A36   A(12,11,14)           122.5055         estimate D2E/DX2                !
 ! A37   A(10,12,11)           111.9104         estimate D2E/DX2                !
 ! A38   A(10,15,16)           112.693          estimate D2E/DX2                !
 ! A39   A(10,15,17)           109.8332         estimate D2E/DX2                !
 ! A40   A(10,15,27)           107.2442         estimate D2E/DX2                !
 ! A41   A(16,15,17)           113.4947         estimate D2E/DX2                !
 ! A42   A(16,15,27)           107.5067         estimate D2E/DX2                !
 ! A43   A(17,15,27)           105.5991         estimate D2E/DX2                !
 ! A44   A(15,16,19)           119.2024         estimate D2E/DX2                !
 ! A45   A(15,16,23)           121.0053         estimate D2E/DX2                !
 ! A46   A(19,16,23)           119.7881         estimate D2E/DX2                !
 ! A47   A(15,17,33)           110.2034         estimate D2E/DX2                !
 ! A48   A(16,19,20)           119.8409         estimate D2E/DX2                !
 ! A49   A(16,19,34)           120.3219         estimate D2E/DX2                !
 ! A50   A(20,19,34)           119.8361         estimate D2E/DX2                !
 ! A51   A(19,20,21)           120.6735         estimate D2E/DX2                !
 ! A52   A(19,20,35)           119.7363         estimate D2E/DX2                !
 ! A53   A(21,20,35)           119.5897         estimate D2E/DX2                !
 ! A54   A(20,21,22)           119.7005         estimate D2E/DX2                !
 ! A55   A(20,21,36)           121.6741         estimate D2E/DX2                !
 ! A56   A(22,21,36)           118.6254         estimate D2E/DX2                !
 ! A57   A(21,22,23)           120.0158         estimate D2E/DX2                !
 ! A58   A(21,22,24)           115.6597         estimate D2E/DX2                !
 ! A59   A(23,22,24)           124.3238         estimate D2E/DX2                !
 ! A60   A(16,23,22)           119.9808         estimate D2E/DX2                !
 ! A61   A(16,23,37)           119.6521         estimate D2E/DX2                !
 ! A62   A(22,23,37)           120.3486         estimate D2E/DX2                !
 ! A63   A(22,24,25)           119.9762         estimate D2E/DX2                !
 ! A64   A(24,25,38)           111.5083         estimate D2E/DX2                !
 ! A65   A(24,25,39)           111.4275         estimate D2E/DX2                !
 ! A66   A(24,25,40)           106.1693         estimate D2E/DX2                !
 ! A67   A(38,25,39)           109.2855         estimate D2E/DX2                !
 ! A68   A(38,25,40)           109.2441         estimate D2E/DX2                !
 ! A69   A(39,25,40)           109.1227         estimate D2E/DX2                !
 ! D1    D(6,1,2,3)             -1.4476         estimate D2E/DX2                !
 ! D2    D(6,1,2,7)           -179.4943         estimate D2E/DX2                !
 ! D3    D(28,1,2,3)           177.4838         estimate D2E/DX2                !
 ! D4    D(28,1,2,7)            -0.5629         estimate D2E/DX2                !
 ! D5    D(2,1,6,5)              1.4369         estimate D2E/DX2                !
 ! D6    D(2,1,6,31)          -179.6269         estimate D2E/DX2                !
 ! D7    D(28,1,6,5)          -177.4985         estimate D2E/DX2                !
 ! D8    D(28,1,6,31)            1.4377         estimate D2E/DX2                !
 ! D9    D(1,2,3,4)              0.2894         estimate D2E/DX2                !
 ! D10   D(1,2,3,29)           179.7755         estimate D2E/DX2                !
 ! D11   D(7,2,3,4)            178.3824         estimate D2E/DX2                !
 ! D12   D(7,2,3,29)            -2.1315         estimate D2E/DX2                !
 ! D13   D(1,2,7,8)            -51.6779         estimate D2E/DX2                !
 ! D14   D(1,2,7,32)           114.4142         estimate D2E/DX2                !
 ! D15   D(3,2,7,8)            130.2655         estimate D2E/DX2                !
 ! D16   D(3,2,7,32)           -63.6424         estimate D2E/DX2                !
 ! D17   D(2,3,4,5)              0.8614         estimate D2E/DX2                !
 ! D18   D(2,3,4,30)          -179.9041         estimate D2E/DX2                !
 ! D19   D(29,3,4,5)          -178.6213         estimate D2E/DX2                !
 ! D20   D(29,3,4,30)            0.6132         estimate D2E/DX2                !
 ! D21   D(3,4,5,6)             -0.8748         estimate D2E/DX2                !
 ! D22   D(3,4,5,18)           179.3257         estimate D2E/DX2                !
 ! D23   D(30,4,5,6)           179.8901         estimate D2E/DX2                !
 ! D24   D(30,4,5,18)            0.0906         estimate D2E/DX2                !
 ! D25   D(4,5,6,1)             -0.2695         estimate D2E/DX2                !
 ! D26   D(4,5,6,31)          -179.2056         estimate D2E/DX2                !
 ! D27   D(18,5,6,1)           179.5299         estimate D2E/DX2                !
 ! D28   D(18,5,6,31)            0.5938         estimate D2E/DX2                !
 ! D29   D(2,7,8,9)            161.4376         estimate D2E/DX2                !
 ! D30   D(2,7,8,10)           -22.7075         estimate D2E/DX2                !
 ! D31   D(32,7,8,9)            -4.784          estimate D2E/DX2                !
 ! D32   D(32,7,8,10)          171.0709         estimate D2E/DX2                !
 ! D33   D(7,8,9,11)           176.8458         estimate D2E/DX2                !
 ! D34   D(7,8,9,13)            -1.9816         estimate D2E/DX2                !
 ! D35   D(10,8,9,11)            0.4392         estimate D2E/DX2                !
 ! D36   D(10,8,9,13)         -178.3882         estimate D2E/DX2                !
 ! D37   D(7,8,10,12)         -179.1342         estimate D2E/DX2                !
 ! D38   D(7,8,10,15)          -60.4482         estimate D2E/DX2                !
 ! D39   D(7,8,10,26)           64.3475         estimate D2E/DX2                !
 ! D40   D(9,8,10,12)           -2.5718         estimate D2E/DX2                !
 ! D41   D(9,8,10,15)          116.1142         estimate D2E/DX2                !
 ! D42   D(9,8,10,26)         -119.0901         estimate D2E/DX2                !
 ! D43   D(8,9,11,12)            1.9849         estimate D2E/DX2                !
 ! D44   D(8,9,11,14)         -178.5282         estimate D2E/DX2                !
 ! D45   D(13,9,11,12)        -179.1316         estimate D2E/DX2                !
 ! D46   D(13,9,11,14)           0.3553         estimate D2E/DX2                !
 ! D47   D(8,10,12,11)           3.9454         estimate D2E/DX2                !
 ! D48   D(15,10,12,11)       -117.235          estimate D2E/DX2                !
 ! D49   D(26,10,12,11)        122.8618         estimate D2E/DX2                !
 ! D50   D(8,10,15,16)         170.9391         estimate D2E/DX2                !
 ! D51   D(8,10,15,17)         -61.4578         estimate D2E/DX2                !
 ! D52   D(8,10,15,27)          52.8266         estimate D2E/DX2                !
 ! D53   D(12,10,15,16)        -73.9099         estimate D2E/DX2                !
 ! D54   D(12,10,15,17)         53.6932         estimate D2E/DX2                !
 ! D55   D(12,10,15,27)        167.9777         estimate D2E/DX2                !
 ! D56   D(26,10,15,16)         45.0872         estimate D2E/DX2                !
 ! D57   D(26,10,15,17)        172.6903         estimate D2E/DX2                !
 ! D58   D(26,10,15,27)        -73.0253         estimate D2E/DX2                !
 ! D59   D(9,11,12,10)          -3.7875         estimate D2E/DX2                !
 ! D60   D(14,11,12,10)        176.6736         estimate D2E/DX2                !
 ! D61   D(10,15,16,19)       -118.5155         estimate D2E/DX2                !
 ! D62   D(10,15,16,23)         62.2277         estimate D2E/DX2                !
 ! D63   D(17,15,16,19)        115.8386         estimate D2E/DX2                !
 ! D64   D(17,15,16,23)        -63.4183         estimate D2E/DX2                !
 ! D65   D(27,15,16,19)         -0.5573         estimate D2E/DX2                !
 ! D66   D(27,15,16,23)       -179.8141         estimate D2E/DX2                !
 ! D67   D(10,15,17,33)        -75.5402         estimate D2E/DX2                !
 ! D68   D(16,15,17,33)         51.6154         estimate D2E/DX2                !
 ! D69   D(27,15,17,33)        169.1263         estimate D2E/DX2                !
 ! D70   D(15,16,19,20)       -179.2647         estimate D2E/DX2                !
 ! D71   D(15,16,19,34)          0.3417         estimate D2E/DX2                !
 ! D72   D(23,16,19,20)          0.0013         estimate D2E/DX2                !
 ! D73   D(23,16,19,34)        179.6078         estimate D2E/DX2                !
 ! D74   D(15,16,23,22)        179.1177         estimate D2E/DX2                !
 ! D75   D(15,16,23,37)         -2.4371         estimate D2E/DX2                !
 ! D76   D(19,16,23,22)         -0.1349         estimate D2E/DX2                !
 ! D77   D(19,16,23,37)        178.3104         estimate D2E/DX2                !
 ! D78   D(16,19,20,21)          0.1584         estimate D2E/DX2                !
 ! D79   D(16,19,20,35)        179.9025         estimate D2E/DX2                !
 ! D80   D(34,19,20,21)       -179.45           estimate D2E/DX2                !
 ! D81   D(34,19,20,35)          0.2941         estimate D2E/DX2                !
 ! D82   D(19,20,21,22)         -0.1823         estimate D2E/DX2                !
 ! D83   D(19,20,21,36)        179.9016         estimate D2E/DX2                !
 ! D84   D(35,20,21,22)       -179.9267         estimate D2E/DX2                !
 ! D85   D(35,20,21,36)          0.1571         estimate D2E/DX2                !
 ! D86   D(20,21,22,23)          0.0469         estimate D2E/DX2                !
 ! D87   D(20,21,22,24)       -179.6428         estimate D2E/DX2                !
 ! D88   D(36,21,22,23)        179.9656         estimate D2E/DX2                !
 ! D89   D(36,21,22,24)          0.2759         estimate D2E/DX2                !
 ! D90   D(21,22,23,16)          0.1111         estimate D2E/DX2                !
 ! D91   D(21,22,23,37)       -178.3232         estimate D2E/DX2                !
 ! D92   D(24,22,23,16)        179.7725         estimate D2E/DX2                !
 ! D93   D(24,22,23,37)          1.3381         estimate D2E/DX2                !
 ! D94   D(21,22,24,25)        179.4669         estimate D2E/DX2                !
 ! D95   D(23,22,24,25)         -0.2078         estimate D2E/DX2                !
 ! D96   D(22,24,25,38)        -60.6213         estimate D2E/DX2                !
 ! D97   D(22,24,25,39)         61.7912         estimate D2E/DX2                !
 ! D98   D(22,24,25,40)       -179.5103         estimate D2E/DX2                !
 --------------------------------------------------------------------------------
 Trust Radius=3.00D-01 FncErr=1.00D-07 GrdErr=1.00D-06
 Number of steps in this run=    219 maximum allowed number of steps=    240.
 GradGradGradGradGradGradGradGradGradGradGradGradGradGradGradGradGradGrad

 Leave Link  103 at Sun Jul 07 02:47:40 2019, MaxMem=   209715200 cpu:         0.0
 (Enter C:\G09W\l202.exe)
                          Input orientation:                          
 ---------------------------------------------------------------------
 Center     Atomic      Atomic             Coordinates (Angstroms)
 Number     Number       Type             X           Y           Z
 ---------------------------------------------------------------------
      1          6           0        1.983795   -1.033542   -1.076398
      2          6           0        1.670540   -1.557618    0.169201
      3          6           0        2.492159   -1.282824    1.253798
      4          6           0        3.612993   -0.487422    1.098706
      5          6           0        3.899437    0.047816   -0.144468
      6          6           0        3.091238   -0.216918   -1.233341
      7          7           0        0.547631   -2.405042    0.353226
      8          6           0       -0.722265   -2.150221   -0.034898
      9          6           0       -1.718679   -3.021128   -0.193024
     10          6           0       -1.277812   -0.761688   -0.284545
     11          6           0       -2.942703   -2.312751   -0.551336
     12          8           0       -2.622296   -1.001385   -0.641965
     13         17           0       -1.646844   -4.724975    0.010318
     14          8           0       -4.033503   -2.713976   -0.751689
     15          6           0       -1.227247    0.146907    0.959003
     16          6           0       -1.579192    1.593090    0.643965
     17          8           0       -2.002405   -0.404617    1.980293
     18         35           0        5.423224    1.153660   -0.357189
     19          6           0       -0.638133    2.579010    0.865212
     20          6           0       -0.951315    3.908520    0.596056
     21          6           0       -2.191158    4.252907    0.114216
     22          6           0       -3.145256    3.260287   -0.111454
     23          6           0       -2.841677    1.936044    0.150650
     24          8           0       -4.328196    3.687154   -0.590597
     25          6           0       -5.348535    2.764583   -0.860739
     26          1           0       -0.785448   -0.274955   -1.115565
     27          1           0       -0.210731    0.132133    1.325428
     28          1           0        1.375721   -1.274402   -1.929470
     29          1           0        2.246256   -1.686601    2.219268
     30          1           0        4.248471   -0.276773    1.937500
     31          1           0        3.329251    0.192825   -2.196251
     32          1           0        0.737024   -3.347759    0.613253
     33          1           0       -2.919666   -0.273020    1.800658
     34          1           0        0.333554    2.325565    1.250451
     35          1           0       -0.217440    4.675418    0.770523
     36          1           0       -2.450473    5.273618   -0.097460
     37          1           0       -3.560811    1.166733   -0.045888
     38          1           0       -5.043461    2.042327   -1.610761
     39          1           0       -5.656684    2.239710    0.037961
     40          1           0       -6.181403    3.339216   -1.237971
 ---------------------------------------------------------------------
                    Distance matrix (angstroms):
                    1          2          3          4          5
     1  C    0.000000
     2  C    1.387192   0.000000
     3  C    2.397997   1.388136   0.000000
     4  C    2.771933   2.404667   1.383108   0.000000
     5  C    2.389040   2.764740   2.388762   1.383478   0.000000
     6  C    1.384896   2.404783   2.771446   2.404962   1.381635
     7  N    2.446917   1.418773   2.419006   3.691809   4.183159
     8  C    3.107162   2.473530   3.570103   4.779584   5.118936
     9  C    4.294084   3.709430   4.779765   6.042761   6.401875
    10  C    3.367346   3.087421   4.104968   5.090047   5.242025
    11  C    5.116879   4.729843   5.818675   7.002258   7.249324
    12  O    4.626645   4.404069   5.461756   6.494068   6.624298
    13  Cl   5.290479   4.589382   5.525033   6.841588   7.318793
    14  O    6.255971   5.892479   6.975273   8.176210   8.421861
    15  C    3.980843   3.453457   3.995625   4.883627   5.245032
    16  C    4.749076   4.551167   5.021820   5.611961   5.746727
    17  O    5.062479   4.254408   4.636825   5.684782   6.288962
    18  Br   4.138935   4.659480   4.137980   2.844243   1.894747
    19  C    4.867739   4.788120   4.986330   5.246865   5.293008
    20  C    5.986314   6.077417   6.264199   6.356876   6.243653
    21  C    6.840639   6.976957   7.340056   7.558314   7.405745
    22  C    6.758347   6.817834   7.367782   7.822004   7.742658
    23  C    5.797350   5.706673   6.326757   6.959509   7.006791
    24  O    7.896974   8.004359   8.638270   9.129256   9.007650
    25  C    8.260468   8.307202   9.073547   9.732623   9.665343
    26  H    2.871532   3.054132   4.168020   4.928937   4.795348
    27  H    3.455938   2.780522   3.051696   3.880221   4.365912
    28  H    1.074942   2.138118   3.373381   3.846371   3.362088
    29  H    3.369983   2.133275   1.075005   2.135804   3.365777
    30  H    3.845132   3.378339   2.136403   1.073210   2.135831
    31  H    2.137358   3.377978   3.844620   3.376387   2.134468
    32  H    3.124893   2.067181   2.784736   4.085143   4.701588
    33  H    5.735833   5.038039   5.532324   6.573761   7.098353
    34  H    4.406940   4.246851   4.204766   4.323268   4.455273
    35  H    6.391305   6.540397   6.563241   6.436990   6.261037
    36  H    7.771829   7.982458   8.321204   8.449024   8.223903
    37  H    6.053579   5.902151   6.657925   7.450489   7.544335
    38  H    7.689528   7.823406   8.720544   9.416742   9.279198
    39  H    8.386471   8.253795   8.960477   9.720563   9.805974
    40  H    9.263778   9.360135  10.139174  10.771881  10.660788
                    6          7          8          9         10
     6  C    0.000000
     7  N    3.711471   0.000000
     8  C    4.440353   1.352113   0.000000
     9  C    5.664023   2.411247   1.332788   0.000000
    10  C    4.503952   2.537638   1.516239   2.303868   0.000000
    11  C    6.423869   3.606824   2.285491   1.458911   2.291034
    12  O    5.797377   3.606812   2.301841   2.257750   1.411680
    13  Cl   6.657228   3.211759   2.736101   1.717441   3.991337
    14  O    7.565000   4.722612   3.434517   2.401012   3.409323
    15  C    4.856753   3.166955   2.553359   3.406628   1.540946
    16  C    5.349142   4.537947   3.899687   4.691590   2.549106
    17  O    6.025601   3.626532   2.957514   3.413200   2.404584
    18  Br   2.843288   6.077866   6.984736   8.274212   6.969772
    19  C    5.111687   5.148683   4.814863   5.800775   3.590459
    20  C    6.058727   6.493602   6.095811   7.016517   4.763707
    21  C    7.049748   7.203220   6.571144   7.295836   5.112668
    22  C    7.227963   6.778591   5.928772   6.441890   4.437746
    23  C    6.461436   5.511213   4.606940   5.094388   3.148464
    24  O    8.408502   7.859984   6.883784   7.208931   5.402842
    25  C    8.958680   7.934955   6.799977   6.862663   5.416398
    26  H    3.878909   2.910621   2.165284   3.043595   1.081631
    27  H    4.191913   2.820912   2.705789   3.810861   2.128284
    28  H    2.132104   2.678578   2.959393   3.954947   3.163841
    29  H    3.846358   2.623661   3.756105   4.829164   4.420814
    30  H    3.375945   4.553644   5.666425   6.904889   5.975988
    31  H    1.073189   4.581065   5.155201   6.310627   5.078459
    32  H    4.330635   0.996092   1.995926   2.605235   3.399025
    33  H    6.733444   4.320038   3.423700   3.601282   2.698620
    34  H    4.498696   4.819698   4.774886   5.906133   3.805765
    35  H    6.236808   7.133890   6.891509   7.900567   5.639120
    36  H    7.883322   8.255517   7.622598   8.327513   6.151020
    37  H    6.897412   5.458586   4.365736   4.577475   2.997974
    38  H    8.451033   7.409227   6.223627   6.221152   4.878674
    39  H    9.174823   7.756716   6.604945   6.575534   5.318545
    40  H    9.931162   8.989344   7.834762   7.839757   6.463098
                   11         12         13         14         15
    11  C    0.000000
    12  O    1.352980   0.000000
    13  Cl   2.795269   3.904113   0.000000
    14  O    1.179393   2.221826   3.212618   0.000000
    15  C    3.357653   2.414091   4.981094   4.357315   0.000000
    16  C    4.306217   3.077821   6.350121   5.149982   1.521368
    17  O    3.306702   2.759825   4.761588   4.113663   1.395737
    18  Br   9.057728   8.334009   9.202134  10.224672   6.853808
    19  C    5.589900   4.362077   7.422704   6.492966   2.504192
    20  C    6.632220   5.332170   8.681249   7.427904   3.789143
    21  C    6.641961   5.325906   8.994967   7.258201   4.301398
    22  C    5.594039   4.326289   8.125545   6.073772   3.810219
    23  C    4.307580   3.050386   6.768788   4.884399   2.541816
    24  O    6.157921   4.989502   8.849557   6.409934   4.954845
    25  C    5.626996   4.654327   8.399687   5.635229   5.210442
    26  H    3.020714   2.031258   4.670363   4.078123   2.162634
    27  H    4.118661   3.312272   5.232918   5.198878   1.080643
    28  H    4.650399   4.209079   4.980475   5.720074   4.139908
    29  H    5.915539   5.688495   5.409936   7.022639   4.124954
    30  H    7.877341   7.374696   7.632514   9.042278   5.578570
    31  H    6.951335   6.266008   7.335886   8.046515   5.542509
    32  H    3.995985   4.285566   2.818347   5.002267   4.023754
    33  H    3.113344   2.566194   4.964403   3.703157   1.936234
    34  H    5.957707   4.835999   7.427652   6.962523   2.695847
    35  H    7.616356   6.324915   9.538789   8.454739   4.643560
    36  H    7.615858   6.300926  10.031416   8.169190   5.375459
    37  H    3.569922   2.436566   6.195051   3.972593   2.737768
    38  H    4.949977   4.008090   7.743467   4.937655   4.975921
    39  H    5.332716   4.491604   8.036568   5.272312   4.984782
    40  H    6.550220   5.644757   9.335504   6.441357   6.289769
                   16         17         18         19         20
    16  C    0.000000
    17  O    2.440433   0.000000
    18  Br   7.087259   7.939270   0.000000
    19  C    1.380790   3.465065   6.345545   0.000000
    20  C    2.399529   4.650167   7.009471   1.392165   0.000000
    21  C    2.780245   5.020996   8.234462   2.403708   1.374039
    22  C    2.408892   4.371846   8.827067   2.775550   2.394609
    23  C    1.398158   3.087177   8.317368   2.404082   2.768125
    24  O    3.669642   5.362963  10.077860   4.118729   3.586150
    25  C    4.224272   5.414044  10.903184   5.020083   4.771414
    26  H    2.686181   3.328984   6.415893   3.477110   4.523121
    27  H    2.114586   1.981677   5.967928   2.526198   3.916829
    28  H    4.855573   5.239705   4.974920   5.168621   6.217400
    29  H    5.279394   4.444290   4.979793   5.324341   6.645649
    30  H    6.255500   6.252330   2.948183   5.760573   6.808372
    31  H    5.841265   6.799045   2.947893   5.550367   6.318751
    32  H    5.456903   4.246805   6.570008   6.089428   7.450125
    33  H    2.572387   0.943904   8.734731   3.770216   4.776060
    34  H    2.136104   3.666506   5.464669   1.075555   2.141230
    35  H    3.372111   5.518732   6.744746   2.140298   1.075706
    36  H    3.854235   6.063017   8.890254   3.387067   2.142879
    37  H    2.141143   3.000530   8.989436   3.371450   3.839135
    38  H    4.157735   5.303888  10.578878   5.081868   5.009828
    39  H    4.172685   4.911097  11.140018   5.097580   5.023634
    40  H    5.269818   6.468194  11.841444   5.977385   5.571497
                   21         22         23         24         25
    21  C    0.000000
    22  C    1.395179   0.000000
    23  C    2.406732   1.383647   0.000000
    24  O    2.320295   1.345786   2.413622   0.000000
    25  C    3.624179   2.379409   2.827317   1.401858   0.000000
    26  H    4.897950   4.367479   3.274125   5.340877   5.488669
    27  H    4.729683   4.523429   3.399423   5.767395   6.173018
    28  H    6.888427   6.656412   5.693883   7.677518   7.916515
    29  H    7.707116   7.679347   6.579498   8.944048   9.326325
    30  H    8.081534   8.448444   7.639345   9.780757  10.449044
    31  H    7.231697   7.461564   6.828405   8.568836   9.148852
    32  H    8.160479   7.698284   6.398412   8.751897   8.750280
    33  H    4.884550   4.023844   2.758364   4.835808   4.712692
    34  H    3.373403   3.851053   3.382807   5.193775   6.077499
    35  H    2.122455   3.369360   3.843830   4.441579   5.713181
    36  H    1.074198   2.129888   3.369570   2.507169   3.908531
    37  H    3.380244   2.135405   1.071270   2.690374   2.532403
    38  H    3.999730   2.708234   2.821652   2.063442   1.085015
    39  H    4.008572   2.714990   2.833580   2.062780   1.085407
    40  H    4.311067   3.239361   3.879553   1.993622   1.079896
                   26         27         28         29         30
    26  H    0.000000
    27  H    2.540564   0.000000
    28  H    2.516344   3.884525   0.000000
    29  H    4.722826   3.184891   4.259080   0.000000
    30  H    5.887406   4.519549   4.919493   2.464929   0.000000
    31  H    4.279889   4.993734   2.457683   4.919546   4.260679
    32  H    3.840424   3.676286   3.342482   2.759803   4.849211
    33  H    3.613758   2.779986   5.776415   5.372169   7.169444
    34  H    3.689567   2.261197   4.915056   4.549122   4.750871
    35  H    5.327866   4.577052   6.725212   6.974521   6.769815
    36  H    5.881795   5.785838   7.802089   8.710404   8.934414
    37  H    3.305346   3.764829   5.820341   6.855252   8.185501
    38  H    4.872955   5.968696   7.232438   9.039580  10.213147
    39  H    5.602062   5.979787   8.103980   9.090131  10.394856
    40  H    6.495656   7.246055   8.881090  10.403690  11.486569
                   31         32         33         34         35
    31  H    0.000000
    32  H    5.210440   0.000000
    33  H    7.432446   4.922939   0.000000
    34  H    5.040093   5.723235   4.199859   0.000000
    35  H    6.440063   8.081281   5.731513   2.460840   0.000000
    36  H    7.976502   9.219186   5.881172   4.273018   2.469347
    37  H    7.283235   6.267894   2.427692   4.264911   4.914827
    38  H    8.594519   8.210559   4.637792   6.097462   5.991174
    39  H    9.483062   8.510598   4.112442   6.112320   6.004556
    40  H   10.063330   9.798331   5.737634   7.047297   6.433377
                   36         37         38         39         40
    36  H    0.000000
    37  H    4.254646   0.000000
    38  H    4.410772   2.326745   0.000000
    39  H    4.416189   2.356055   1.770109   0.000000
    40  H    4.354597   3.606695   1.765164   1.764156   0.000000
 Stoichiometry    C18H15BrClNO4
 Framework group  C1[X(C18H15BrClNO4)]
 Deg. of freedom   114
 Full point group                 C1      NOp   1
 Largest Abelian subgroup         C1      NOp   1
 Largest concise Abelian subgroup C1      NOp   1
                         Standard orientation:                         
 ---------------------------------------------------------------------
 Center     Atomic      Atomic             Coordinates (Angstroms)
 Number     Number       Type             X           Y           Z
 ---------------------------------------------------------------------
      1          6           0       -1.983795    1.033542   -1.076398
      2          6           0       -1.670540    1.557618    0.169201
      3          6           0       -2.492159    1.282824    1.253798
      4          6           0       -3.612993    0.487422    1.098706
      5          6           0       -3.899437   -0.047816   -0.144468
      6          6           0       -3.091238    0.216918   -1.233341
      7          7           0       -0.547631    2.405042    0.353226
      8          6           0        0.722265    2.150221   -0.034898
      9          6           0        1.718679    3.021128   -0.193024
     10          6           0        1.277812    0.761688   -0.284545
     11          6           0        2.942703    2.312751   -0.551336
     12          8           0        2.622296    1.001385   -0.641965
     13         17           0        1.646844    4.724975    0.010318
     14          8           0        4.033503    2.713976   -0.751689
     15          6           0        1.227247   -0.146907    0.959003
     16          6           0        1.579192   -1.593090    0.643965
     17          8           0        2.002405    0.404617    1.980293
     18         35           0       -5.423224   -1.153660   -0.357189
     19          6           0        0.638133   -2.579010    0.865212
     20          6           0        0.951315   -3.908520    0.596056
     21          6           0        2.191158   -4.252907    0.114216
     22          6           0        3.145256   -3.260287   -0.111454
     23          6           0        2.841677   -1.936044    0.150650
     24          8           0        4.328196   -3.687154   -0.590597
     25          6           0        5.348535   -2.764583   -0.860739
     26          1           0        0.785448    0.274955   -1.115565
     27          1           0        0.210731   -0.132133    1.325428
     28          1           0       -1.375721    1.274402   -1.929470
     29          1           0       -2.246256    1.686601    2.219268
     30          1           0       -4.248471    0.276773    1.937500
     31          1           0       -3.329251   -0.192825   -2.196251
     32          1           0       -0.737024    3.347759    0.613253
     33          1           0        2.919666    0.273020    1.800658
     34          1           0       -0.333554   -2.325565    1.250451
     35          1           0        0.217440   -4.675418    0.770523
     36          1           0        2.450473   -5.273618   -0.097460
     37          1           0        3.560811   -1.166733   -0.045888
     38          1           0        5.043461   -2.042327   -1.610761
     39          1           0        5.656684   -2.239710    0.037961
     40          1           0        6.181403   -3.339216   -1.237971
 ---------------------------------------------------------------------
 Rotational constants (GHZ):      0.1859090      0.1009768      0.0696901
 Leave Link  202 at Sun Jul 07 02:47:40 2019, MaxMem=   209715200 cpu:         0.0
 (Enter C:\G09W\l301.exe)
 Standard basis: 6-311++G(d,p) (5D, 7F)
 Ernie: Thresh=  0.10000D-02 Tol=  0.10000D-05 Strict=F.
 There are   716 symmetry adapted cartesian basis functions of A   symmetry.
 There are   689 symmetry adapted basis functions of A   symmetry.
   689 basis functions,  1110 primitive gaussians,   716 cartesian basis functions
   107 alpha electrons      107 beta electrons
       nuclear repulsion energy      2708.8249710578 Hartrees.
 IExCor=  402 DFT=T Ex+Corr=B3LYP ExCW=0 ScaHFX=  0.200000
 ScaDFX=  0.800000  0.720000  1.000000  0.810000 ScalE2=  1.000000  1.000000
 IRadAn=      0 IRanWt=     -1 IRanGd=            0 ICorTp=0 IEmpDi=  4
 NAtoms=   40 NActive=   40 NUniq=   40 SFac= 1.00D+00 NAtFMM=   60 NAOKFM=F Big=F
 Integral buffers will be    262144 words long.
 Raffenetti 2 integral format.
 Two-electron integral symmetry is turned on.
 Leave Link  301 at Sun Jul 07 02:47:40 2019, MaxMem=   209715200 cpu:         0.0
 (Enter C:\G09W\l302.exe)
 NPDir=0 NMtPBC=     1 NCelOv=     1 NCel=       1 NClECP=     1 NCelD=      1
         NCelK=      1 NCelE2=     1 NClLst=     1 CellRange=     0.0.
 One-electron integrals computed using PRISM.
 NBasis=   689 RedAO= T EigKep=  1.41D-06  NBF=   689
 NBsUse=   684 1.00D-06 EigRej=  8.56D-07 NBFU=   684
 Precomputing XC quadrature grid using
 IXCGrd= 4 IRadAn=           0 IRanWt=          -1 IRanGd=           0 AccXCQ= 0.00D+00.
 Generated NRdTot=       0 NPtTot=           0 NUsed=           0 NTot=          16
 NSgBfM=   683   686   687   687   687 MxSgAt=    40 MxSgA2=    40.
 Leave Link  302 at Sun Jul 07 02:47:42 2019, MaxMem=   209715200 cpu:         2.0
 (Enter C:\G09W\l303.exe)
 DipDrv:  MaxL=1.
 Leave Link  303 at Sun Jul 07 02:47:42 2019, MaxMem=   209715200 cpu:         0.0
 (Enter C:\G09W\l401.exe)
 ExpMin= 3.50D-02 ExpMax= 4.40D+05 ExpMxC= 1.51D+04 IAcc=3 IRadAn=         5 AccDes= 0.00D+00
 Harris functional with IExCor=  402 and IRadAn=       5 diagonalized for initial guess.
 HarFok:  IExCor=  402 AccDes= 0.00D+00 IRadAn=         5 IDoV= 1 UseB2=F ITyADJ=14
 ICtDFT=  3500011 ScaDFX=  1.000000  1.000000  1.000000  1.000000
 FoFCou: FMM=F IPFlag=           0 FMFlag=      100000 FMFlg1=           0
         NFxFlg=           0 DoJE=T BraDBF=F KetDBF=T FulRan=T
         wScrn=  0.000000 ICntrl=     500 IOpCl=  0 I1Cent=   200000004 NGrid=           0
         NMat0=    1 NMatS0=      1 NMatT0=    0 NMatD0=    1 NMtDS0=    0 NMtDT0=    0
 Petite list used in FoFCou.
 Harris En= -4085.26701982060    
 JPrj=0 DoOrth=F DoCkMO=F.
 Leave Link  401 at Sun Jul 07 02:48:18 2019, MaxMem=   209715200 cpu:        36.0
 (Enter C:\G09W\l502.exe)
 Closed shell SCF:
 Using DIIS extrapolation, IDIIS=  1040.
 Integral symmetry usage will be decided dynamically.
 IVT=     1565149 IEndB=     1565149 NGot=   209715200 MDV=   208680064
 LenX=   208680064 LenY=   208166692
 Requested convergence on RMS density matrix=1.00D-08 within 128 cycles.
 Requested convergence on MAX density matrix=1.00D-06.
 Requested convergence on             energy=1.00D-06.
 No special actions if energy rises.
 Fock matrices will be formed incrementally for  20 cycles.

 Cycle   1  Pass 1  IDiag  1:
 FoFJK:  IHMeth= 1 ICntrl=       0 DoSepK=F KAlg= 0 I1Cent=   0 FoldK=F
 IRaf= 770000000 NMat=   1 IRICut=       1 DoRegI=T DoRafI=F ISym2E= 0.
 FoFCou: FMM=F IPFlag=           0 FMFlag=      100000 FMFlg1=           0
         NFxFlg=           0 DoJE=F BraDBF=F KetDBF=F FulRan=T
         wScrn=  0.000000 ICntrl=       0 IOpCl=  0 I1Cent=           0 NGrid=           0
         NMat0=    1 NMatS0=      1 NMatT0=    0 NMatD0=    1 NMtDS0=    0 NMtDT0=    0
 Symmetry not used in FoFCou.
 E= -4084.64996276342    
 DIIS: error= 6.12D-02 at cycle   1 NSaved=   1.
 NSaved= 1 IEnMin= 1 EnMin= -4084.64996276342     IErMin= 1 ErrMin= 6.12D-02
 ErrMax= 6.12D-02  0.00D+00 EMaxC= 1.00D-01 BMatC= 1.87D+00 BMatP= 1.87D+00
 IDIUse=3 WtCom= 3.88D-01 WtEn= 6.12D-01
 Coeff-Com:  0.100D+01
 Coeff-En:   0.100D+01
 Coeff:      0.100D+01
 Gap=     0.343 Goal=   None    Shift=    0.000
 GapD=    0.343 DampG=1.000 DampE=0.500 DampFc=0.5000 IDamp=-1.
 Damping current iteration by 5.00D-01
 RMSDP=2.71D-02 MaxDP=4.35D+00              OVMax= 2.16D-01

 Cycle   2  Pass 1  IDiag  1:
 RMSU=  1.35D-02    CP:  1.02D+00
 E= -4084.86222618086     Delta-E=       -0.212263417435 Rises=F Damp=T
 DIIS: error= 3.05D-02 at cycle   2 NSaved=   2.
 NSaved= 2 IEnMin= 2 EnMin= -4084.86222618086     IErMin= 2 ErrMin= 3.05D-02
 ErrMax= 3.05D-02  0.00D+00 EMaxC= 1.00D-01 BMatC= 2.61D-01 BMatP= 1.87D+00
 IDIUse=3 WtCom= 6.95D-01 WtEn= 3.05D-01
 Coeff-Com: -0.118D+00 0.112D+01
 Coeff-En:   0.230D+00 0.770D+00
 Coeff:     -0.116D-01 0.101D+01
 Gap=     0.246 Goal=   None    Shift=    0.000
 RMSDP=1.05D-02 MaxDP=1.18D+00 DE=-2.12D-01 OVMax= 2.09D-01

 Cycle   3  Pass 1  IDiag  1:
 RMSU=  7.77D-03    CP:  1.02D+00  4.74D-01
 E= -4085.08161736988     Delta-E=       -0.219391189018 Rises=F Damp=F
 DIIS: error= 1.19D-02 at cycle   3 NSaved=   3.
 NSaved= 3 IEnMin= 3 EnMin= -4085.08161736988     IErMin= 3 ErrMin= 1.19D-02
 ErrMax= 1.19D-02  0.00D+00 EMaxC= 1.00D-01 BMatC= 1.94D-01 BMatP= 2.61D-01
 IDIUse=3 WtCom= 8.81D-01 WtEn= 1.19D-01
 Coeff-Com: -0.175D+00 0.589D+00 0.586D+00
 Coeff-En:   0.000D+00 0.441D-02 0.996D+00
 Coeff:     -0.154D+00 0.519D+00 0.635D+00
 Gap=     0.200 Goal=   None    Shift=    0.000
 RMSDP=5.72D-03 MaxDP=6.12D-01 DE=-2.19D-01 OVMax= 1.24D-01

 Cycle   4  Pass 1  IDiag  1:
 RMSU=  4.05D-03    CP:  1.00D+00  7.03D-01  6.80D-01
 E= -4085.16225034162     Delta-E=       -0.080632971743 Rises=F Damp=F
 DIIS: error= 8.07D-03 at cycle   4 NSaved=   4.
 NSaved= 4 IEnMin= 4 EnMin= -4085.16225034162     IErMin= 4 ErrMin= 8.07D-03
 ErrMax= 8.07D-03  0.00D+00 EMaxC= 1.00D-01 BMatC= 8.23D-02 BMatP= 1.94D-01
 IDIUse=3 WtCom= 9.19D-01 WtEn= 8.07D-02
 Coeff-Com: -0.938D-01 0.242D+00 0.436D+00 0.415D+00
 Coeff-En:   0.000D+00 0.000D+00 0.340D+00 0.660D+00
 Coeff:     -0.862D-01 0.223D+00 0.429D+00 0.435D+00
 Gap=     0.184 Goal=   None    Shift=    0.000
 RMSDP=3.60D-03 MaxDP=4.83D-01 DE=-8.06D-02 OVMax= 6.22D-02

 Cycle   5  Pass 1  IDiag  1:
 RMSU=  1.71D-03    CP:  9.61D-01  7.38D-01  6.04D-01  4.17D-01
 E= -4085.22547962277     Delta-E=       -0.063229281148 Rises=F Damp=F
 DIIS: error= 1.61D-03 at cycle   5 NSaved=   5.
 NSaved= 5 IEnMin= 5 EnMin= -4085.22547962277     IErMin= 5 ErrMin= 1.61D-03
 ErrMax= 1.61D-03  0.00D+00 EMaxC= 1.00D-01 BMatC= 2.81D-03 BMatP= 8.23D-02
 IDIUse=3 WtCom= 9.84D-01 WtEn= 1.61D-02
 Coeff-Com: -0.318D-01 0.760D-01 0.173D+00 0.241D+00 0.543D+00
 Coeff-En:   0.000D+00 0.000D+00 0.000D+00 0.000D+00 0.100D+01
 Coeff:     -0.313D-01 0.748D-01 0.170D+00 0.237D+00 0.550D+00
 Gap=     0.175 Goal=   None    Shift=    0.000
 RMSDP=1.16D-03 MaxDP=1.21D-01 DE=-6.32D-02 OVMax= 1.71D-02

 Cycle   6  Pass 1  IDiag  1:
 RMSU=  6.15D-04    CP:  9.68D-01  7.11D-01  6.82D-01  5.26D-01  7.73D-01
 E= -4085.22770175973     Delta-E=       -0.002222136965 Rises=F Damp=F
 DIIS: error= 5.05D-04 at cycle   6 NSaved=   6.
 NSaved= 6 IEnMin= 6 EnMin= -4085.22770175973     IErMin= 6 ErrMin= 5.05D-04
 ErrMax= 5.05D-04  0.00D+00 EMaxC= 1.00D-01 BMatC= 3.57D-04 BMatP= 2.81D-03
 IDIUse=3 WtCom= 9.95D-01 WtEn= 5.05D-03
 Coeff-Com: -0.830D-02 0.182D-01 0.482D-01 0.905D-01 0.332D+00 0.519D+00
 Coeff-En:   0.000D+00 0.000D+00 0.000D+00 0.000D+00 0.698D-01 0.930D+00
 Coeff:     -0.826D-02 0.181D-01 0.479D-01 0.900D-01 0.331D+00 0.521D+00
 Gap=     0.177 Goal=   None    Shift=    0.000
 RMSDP=3.26D-04 MaxDP=4.24D-02 DE=-2.22D-03 OVMax= 6.19D-03

 Cycle   7  Pass 1  IDiag  1:
 RMSU=  1.36D-04    CP:  9.70D-01  7.13D-01  6.77D-01  5.31D-01  7.33D-01
                    CP:  5.56D-01
 E= -4085.22799268817     Delta-E=       -0.000290928438 Rises=F Damp=F
 DIIS: error= 1.84D-04 at cycle   7 NSaved=   7.
 NSaved= 7 IEnMin= 7 EnMin= -4085.22799268817     IErMin= 7 ErrMin= 1.84D-04
 ErrMax= 1.84D-04  0.00D+00 EMaxC= 1.00D-01 BMatC= 3.44D-05 BMatP= 3.57D-04
 IDIUse=3 WtCom= 9.98D-01 WtEn= 1.84D-03
 Coeff-Com: -0.152D-02 0.301D-02 0.835D-02 0.231D-01 0.130D+00 0.293D+00
 Coeff-Com:  0.545D+00
 Coeff-En:   0.000D+00 0.000D+00 0.000D+00 0.000D+00 0.000D+00 0.407D-01
 Coeff-En:   0.959D+00
 Coeff:     -0.152D-02 0.300D-02 0.833D-02 0.231D-01 0.129D+00 0.292D+00
 Coeff:      0.546D+00
 Gap=     0.177 Goal=   None    Shift=    0.000
 RMSDP=9.65D-05 MaxDP=1.62D-02 DE=-2.91D-04 OVMax= 2.22D-03

 Cycle   8  Pass 1  IDiag  1:
 RMSU=  4.76D-05    CP:  9.70D-01  7.14D-01  6.78D-01  5.35D-01  7.50D-01
                    CP:  6.25D-01  5.89D-01
 E= -4085.22801996307     Delta-E=       -0.000027274902 Rises=F Damp=F
 DIIS: error= 7.10D-05 at cycle   8 NSaved=   8.
 NSaved= 8 IEnMin= 8 EnMin= -4085.22801996307     IErMin= 8 ErrMin= 7.10D-05
 ErrMax= 7.10D-05  0.00D+00 EMaxC= 1.00D-01 BMatC= 6.49D-06 BMatP= 3.44D-05
 IDIUse=1 WtCom= 1.00D+00 WtEn= 0.00D+00
 Coeff-Com:  0.146D-03-0.420D-03-0.805D-03 0.242D-02 0.400D-01 0.116D+00
 Coeff-Com:  0.347D+00 0.496D+00
 Coeff:      0.146D-03-0.420D-03-0.805D-03 0.242D-02 0.400D-01 0.116D+00
 Coeff:      0.347D+00 0.496D+00
 Gap=     0.177 Goal=   None    Shift=    0.000
 RMSDP=4.73D-05 MaxDP=5.89D-03 DE=-2.73D-05 OVMax= 8.23D-04

 Cycle   9  Pass 1  IDiag  1:
 RMSU=  1.65D-05    CP:  9.70D-01  7.14D-01  6.76D-01  5.32D-01  7.58D-01
                    CP:  6.21D-01  6.45D-01  7.26D-01
 E= -4085.22802569045     Delta-E=       -0.000005727377 Rises=F Damp=F
 DIIS: error= 2.40D-05 at cycle   9 NSaved=   9.
 NSaved= 9 IEnMin= 9 EnMin= -4085.22802569045     IErMin= 9 ErrMin= 2.40D-05
 ErrMax= 2.40D-05  0.00D+00 EMaxC= 1.00D-01 BMatC= 3.59D-07 BMatP= 6.49D-06
 IDIUse=1 WtCom= 1.00D+00 WtEn= 0.00D+00
 Coeff-Com:  0.210D-03-0.492D-03-0.834D-03-0.224D-03 0.135D-01 0.419D-01
 Coeff-Com:  0.147D+00 0.268D+00 0.531D+00
 Coeff:      0.210D-03-0.492D-03-0.834D-03-0.224D-03 0.135D-01 0.419D-01
 Coeff:      0.147D+00 0.268D+00 0.531D+00
 Gap=     0.177 Goal=   None    Shift=    0.000
 RMSDP=8.33D-06 MaxDP=5.47D-04 DE=-5.73D-06 OVMax= 1.94D-04

 Cycle  10  Pass 1  IDiag  1:
 RMSU=  4.54D-06    CP:  9.70D-01  7.14D-01  6.76D-01  5.32D-01  7.57D-01
                    CP:  6.25D-01  6.62D-01  6.85D-01  7.41D-01
 E= -4085.22802597431     Delta-E=       -0.000000283861 Rises=F Damp=F
 DIIS: error= 1.33D-05 at cycle  10 NSaved=  10.
 NSaved=10 IEnMin=10 EnMin= -4085.22802597431     IErMin=10 ErrMin= 1.33D-05
 ErrMax= 1.33D-05  0.00D+00 EMaxC= 1.00D-01 BMatC= 5.47D-08 BMatP= 3.59D-07
 IDIUse=1 WtCom= 1.00D+00 WtEn= 0.00D+00
 Coeff-Com:  0.108D-03-0.253D-03-0.345D-03-0.486D-03 0.288D-02 0.982D-02
 Coeff-Com:  0.438D-01 0.958D-01 0.316D+00 0.533D+00
 Coeff:      0.108D-03-0.253D-03-0.345D-03-0.486D-03 0.288D-02 0.982D-02
 Coeff:      0.438D-01 0.958D-01 0.316D+00 0.533D+00
 Gap=     0.177 Goal=   None    Shift=    0.000
 RMSDP=2.77D-06 MaxDP=2.33D-04 DE=-2.84D-07 OVMax= 8.43D-05

 Cycle  11  Pass 1  IDiag  1:
 RMSU=  1.91D-06    CP:  9.70D-01  7.14D-01  6.76D-01  5.32D-01  7.57D-01
                    CP:  6.23D-01  6.64D-01  6.99D-01  7.57D-01  7.84D-01
 E= -4085.22802602453     Delta-E=       -0.000000050217 Rises=F Damp=F
 DIIS: error= 3.68D-06 at cycle  11 NSaved=  11.
 NSaved=11 IEnMin=11 EnMin= -4085.22802602453     IErMin=11 ErrMin= 3.68D-06
 ErrMax= 3.68D-06  0.00D+00 EMaxC= 1.00D-01 BMatC= 5.76D-09 BMatP= 5.47D-08
 IDIUse=1 WtCom= 1.00D+00 WtEn= 0.00D+00
 Coeff-Com:  0.427D-04-0.102D-03-0.121D-03-0.272D-03 0.474D-03 0.206D-02
 Coeff-Com:  0.131D-01 0.342D-01 0.145D+00 0.319D+00 0.486D+00
 Coeff:      0.427D-04-0.102D-03-0.121D-03-0.272D-03 0.474D-03 0.206D-02
 Coeff:      0.131D-01 0.342D-01 0.145D+00 0.319D+00 0.486D+00
 Gap=     0.177 Goal=   None    Shift=    0.000
 RMSDP=1.01D-06 MaxDP=1.11D-04 DE=-5.02D-08 OVMax= 2.22D-05

 Cycle  12  Pass 1  IDiag  1:
 RMSU=  6.27D-07    CP:  9.70D-01  7.14D-01  6.76D-01  5.32D-01  7.57D-01
                    CP:  6.23D-01  6.63D-01  6.99D-01  7.66D-01  7.74D-01
                    CP:  7.72D-01
 E= -4085.22802603022     Delta-E=       -0.000000005696 Rises=F Damp=F
 DIIS: error= 7.00D-07 at cycle  12 NSaved=  12.
 NSaved=12 IEnMin=12 EnMin= -4085.22802603022     IErMin=12 ErrMin= 7.00D-07
 ErrMax= 7.00D-07  0.00D+00 EMaxC= 1.00D-01 BMatC= 5.04D-10 BMatP= 5.76D-09
 IDIUse=1 WtCom= 1.00D+00 WtEn= 0.00D+00
 Coeff-Com:  0.542D-05-0.127D-04-0.178D-04-0.587D-04-0.206D-03-0.433D-03
 Coeff-Com: -0.490D-03 0.181D-02 0.236D-01 0.723D-01 0.250D+00 0.653D+00
 Coeff:      0.542D-05-0.127D-04-0.178D-04-0.587D-04-0.206D-03-0.433D-03
 Coeff:     -0.490D-03 0.181D-02 0.236D-01 0.723D-01 0.250D+00 0.653D+00
 Gap=     0.177 Goal=   None    Shift=    0.000
 RMSDP=4.30D-07 MaxDP=5.16D-05 DE=-5.70D-09 OVMax= 6.32D-06

 Cycle  13  Pass 1  IDiag  1:
 RMSU=  2.17D-07    CP:  9.70D-01  7.14D-01  6.76D-01  5.32D-01  7.57D-01
                    CP:  6.23D-01  6.63D-01  6.99D-01  7.69D-01  7.93D-01
                    CP:  7.98D-01  8.15D-01
 E= -4085.22802603063     Delta-E=       -0.000000000411 Rises=F Damp=F
 DIIS: error= 2.17D-07 at cycle  13 NSaved=  13.
 NSaved=13 IEnMin=13 EnMin= -4085.22802603063     IErMin=13 ErrMin= 2.17D-07
 ErrMax= 2.17D-07  0.00D+00 EMaxC= 1.00D-01 BMatC= 5.86D-11 BMatP= 5.04D-10
 IDIUse=1 WtCom= 1.00D+00 WtEn= 0.00D+00
 Coeff-Com:  0.450D-06-0.102D-05-0.523D-05-0.133D-04-0.132D-03-0.303D-03
 Coeff-Com: -0.939D-03-0.995D-03 0.358D-02 0.169D-01 0.104D+00 0.347D+00
 Coeff-Com:  0.531D+00
 Coeff:      0.450D-06-0.102D-05-0.523D-05-0.133D-04-0.132D-03-0.303D-03
 Coeff:     -0.939D-03-0.995D-03 0.358D-02 0.169D-01 0.104D+00 0.347D+00
 Coeff:      0.531D+00
 Gap=     0.177 Goal=   None    Shift=    0.000
 RMSDP=1.30D-07 MaxDP=1.84D-05 DE=-4.11D-10 OVMax= 2.52D-06

 Cycle  14  Pass 1  IDiag  1:
 RMSU=  6.11D-08    CP:  9.70D-01  7.14D-01  6.76D-01  5.32D-01  7.57D-01
                    CP:  6.23D-01  6.63D-01  7.00D-01  7.69D-01  7.91D-01
                    CP:  8.00D-01  8.01D-01  7.30D-01
 E= -4085.22802603007     Delta-E=        0.000000000566 Rises=F Damp=F
 DIIS: error= 9.28D-08 at cycle  14 NSaved=  14.
 NSaved=14 IEnMin=13 EnMin= -4085.22802603063     IErMin=14 ErrMin= 9.28D-08
 ErrMax= 9.28D-08  0.00D+00 EMaxC= 1.00D-01 BMatC= 8.84D-12 BMatP= 5.86D-11
 IDIUse=1 WtCom= 1.00D+00 WtEn= 0.00D+00
 Coeff-Com: -0.638D-06 0.145D-05-0.845D-06 0.950D-06-0.548D-04-0.125D-03
 Coeff-Com: -0.505D-03-0.915D-03-0.171D-02-0.162D-02 0.221D-01 0.933D-01
 Coeff-Com:  0.313D+00 0.577D+00
 Coeff:     -0.638D-06 0.145D-05-0.845D-06 0.950D-06-0.548D-04-0.125D-03
 Coeff:     -0.505D-03-0.915D-03-0.171D-02-0.162D-02 0.221D-01 0.933D-01
 Coeff:      0.313D+00 0.577D+00
 Gap=     0.177 Goal=   None    Shift=    0.000
 RMSDP=4.20D-08 MaxDP=3.49D-06 DE= 5.66D-10 OVMax= 9.92D-07

 Cycle  15  Pass 1  IDiag  1:
 RMSU=  2.26D-08    CP:  9.70D-01  7.14D-01  6.76D-01  5.32D-01  7.57D-01
                    CP:  6.23D-01  6.63D-01  6.99D-01  7.69D-01  7.90D-01
                    CP:  8.07D-01  8.23D-01  7.43D-01  6.49D-01
 E= -4085.22802603019     Delta-E=       -0.000000000125 Rises=F Damp=F
 DIIS: error= 1.85D-08 at cycle  15 NSaved=  15.
 NSaved=15 IEnMin=13 EnMin= -4085.22802603063     IErMin=15 ErrMin= 1.85D-08
 ErrMax= 1.85D-08  0.00D+00 EMaxC= 1.00D-01 BMatC= 5.36D-13 BMatP= 8.84D-12
 IDIUse=1 WtCom= 1.00D+00 WtEn= 0.00D+00
 Coeff-Com: -0.349D-06 0.788D-06-0.365D-07 0.155D-05-0.180D-04-0.424D-04
 Coeff-Com: -0.191D-03-0.413D-03-0.121D-02-0.208D-02 0.328D-02 0.208D-01
 Coeff-Com:  0.124D+00 0.296D+00 0.560D+00
 Coeff:     -0.349D-06 0.788D-06-0.365D-07 0.155D-05-0.180D-04-0.424D-04
 Coeff:     -0.191D-03-0.413D-03-0.121D-02-0.208D-02 0.328D-02 0.208D-01
 Coeff:      0.124D+00 0.296D+00 0.560D+00
 Gap=     0.177 Goal=   None    Shift=    0.000
 RMSDP=1.29D-08 MaxDP=1.14D-06 DE=-1.25D-10 OVMax= 2.26D-07

 Cycle  16  Pass 1  IDiag  1:
 RMSU=  5.11D-09    CP:  9.70D-01  7.14D-01  6.76D-01  5.32D-01  7.57D-01
                    CP:  6.23D-01  6.63D-01  6.99D-01  7.69D-01  7.91D-01
                    CP:  8.06D-01  8.16D-01  7.57D-01  7.36D-01  8.20D-01
 E= -4085.22802602973     Delta-E=        0.000000000467 Rises=F Damp=F
 DIIS: error= 7.72D-09 at cycle  16 NSaved=  16.
 NSaved=16 IEnMin=13 EnMin= -4085.22802603063     IErMin=16 ErrMin= 7.72D-09
 ErrMax= 7.72D-09  0.00D+00 EMaxC= 1.00D-01 BMatC= 8.38D-14 BMatP= 5.36D-13
 IDIUse=1 WtCom= 1.00D+00 WtEn= 0.00D+00
 Coeff-Com: -0.969D-07 0.218D-06 0.181D-06 0.520D-06-0.202D-05-0.633D-05
 Coeff-Com: -0.301D-04-0.853D-04-0.365D-03-0.709D-03-0.102D-02-0.916D-03
 Coeff-Com:  0.232D-01 0.735D-01 0.302D+00 0.604D+00
 Coeff:     -0.969D-07 0.218D-06 0.181D-06 0.520D-06-0.202D-05-0.633D-05
 Coeff:     -0.301D-04-0.853D-04-0.365D-03-0.709D-03-0.102D-02-0.916D-03
 Coeff:      0.232D-01 0.735D-01 0.302D+00 0.604D+00
 Gap=     0.177 Goal=   None    Shift=    0.000
 RMSDP=6.28D-09 MaxDP=1.04D-06 DE= 4.67D-10 OVMax= 9.41D-08

 Cycle  17  Pass 1  IDiag  1:
 RMSU=  2.45D-09    CP:  9.70D-01  7.14D-01  6.76D-01  5.32D-01  7.57D-01
                    CP:  6.23D-01  6.63D-01  6.99D-01  7.69D-01  7.91D-01
                    CP:  8.06D-01  8.18D-01  7.64D-01  7.24D-01  7.92D-01
                    CP:  6.67D-01
 E= -4085.22802603085     Delta-E=       -0.000000001127 Rises=F Damp=F
 DIIS: error= 2.15D-09 at cycle  17 NSaved=  17.
 NSaved=17 IEnMin=17 EnMin= -4085.22802603085     IErMin=17 ErrMin= 2.15D-09
 ErrMax= 2.15D-09  0.00D+00 EMaxC= 1.00D-01 BMatC= 9.87D-15 BMatP= 8.38D-14
 IDIUse=1 WtCom= 1.00D+00 WtEn= 0.00D+00
 Coeff-Com: -0.122D-07 0.305D-07 0.105D-06 0.922D-07 0.848D-06 0.103D-05
 Coeff-Com:  0.290D-05-0.521D-05-0.931D-04-0.212D-03-0.104D-02-0.282D-02
 Coeff-Com: -0.512D-03 0.933D-02 0.104D+00 0.325D+00 0.566D+00
 Coeff:     -0.122D-07 0.305D-07 0.105D-06 0.922D-07 0.848D-06 0.103D-05
 Coeff:      0.290D-05-0.521D-05-0.931D-04-0.212D-03-0.104D-02-0.282D-02
 Coeff:     -0.512D-03 0.933D-02 0.104D+00 0.325D+00 0.566D+00
 Gap=     0.177 Goal=   None    Shift=    0.000
 RMSDP=1.44D-09 MaxDP=1.54D-07 DE=-1.13D-09 OVMax= 1.92D-08

 SCF Done:  E(RB3LYP) =  -4085.22802603     A.U. after   17 cycles
            NFock= 17  Conv=0.14D-08     -V/T= 2.0018
 KE= 4.077840512149D+03 PE=-1.511488835085D+04 EE= 4.242994841613D+03
 Leave Link  502 at Sun Jul 07 03:19:31 2019, MaxMem=   209715200 cpu:      1873.0
 (Enter C:\G09W\l601.exe)
 Copying SCF densities to generalized density rwf, IOpCl= 0 IROHF=0.

 **********************************************************************

            Population analysis using the SCF density.

 **********************************************************************

 Orbital symmetries:
       Occupied  (A) (A) (A) (A) (A) (A) (A) (A) (A) (A) (A) (A)
                 (A) (A) (A) (A) (A) (A) (A) (A) (A) (A) (A) (A)
                 (A) (A) (A) (A) (A) (A) (A) (A) (A) (A) (A) (A)
                 (A) (A) (A) (A) (A) (A) (A) (A) (A) (A) (A) (A)
                 (A) (A) (A) (A) (A) (A) (A) (A) (A) (A) (A) (A)
                 (A) (A) (A) (A) (A) (A) (A) (A) (A) (A) (A) (A)
                 (A) (A) (A) (A) (A) (A) (A) (A) (A) (A) (A) (A)
                 (A) (A) (A) (A) (A) (A) (A) (A) (A) (A) (A) (A)
                 (A) (A) (A) (A) (A) (A) (A) (A) (A) (A) (A)
       Virtual   (A) (A) (A) (A) (A) (A) (A) (A) (A) (A) (A) (A)
                 (A) (A) (A) (A) (A) (A) (A) (A) (A) (A) (A) (A)
                 (A) (A) (A) (A) (A) (A) (A) (A) (A) (A) (A) (A)
                 (A) (A) (A) (A) (A) (A) (A) (A) (A) (A) (A) (A)
                 (A) (A) (A) (A) (A) (A) (A) (A) (A) (A) (A) (A)
                 (A) (A) (A) (A) (A) (A) (A) (A) (A) (A) (A) (A)
                 (A) (A) (A) (A) (A) (A) (A) (A) (A) (A) (A) (A)
                 (A) (A) (A) (A) (A) (A) (A) (A) (A) (A) (A) (A)
                 (A) (A) (A) (A) (A) (A) (A) (A) (A) (A) (A) (A)
                 (A) (A) (A) (A) (A) (A) (A) (A) (A) (A) (A) (A)
                 (A) (A) (A) (A) (A) (A) (A) (A) (A) (A) (A) (A)
                 (A) (A) (A) (A) (A) (A) (A) (A) (A) (A) (A) (A)
                 (A) (A) (A) (A) (A) (A) (A) (A) (A) (A) (A) (A)
                 (A) (A) (A) (A) (A) (A) (A) (A) (A) (A) (A) (A)
                 (A) (A) (A) (A) (A) (A) (A) (A) (A) (A) (A) (A)
                 (A) (A) (A) (A) (A) (A) (A) (A) (A) (A) (A) (A)
                 (A) (A) (A) (A) (A) (A) (A) (A) (A) (A) (A) (A)
                 (A) (A) (A) (A) (A) (A) (A) (A) (A) (A) (A) (A)
                 (A) (A) (A) (A) (A) (A) (A) (A) (A) (A) (A) (A)
                 (A) (A) (A) (A) (A) (A) (A) (A) (A) (A) (A) (A)
                 (A) (A) (A) (A) (A) (A) (A) (A) (A) (A) (A) (A)
                 (A) (A) (A) (A) (A) (A) (A) (A) (A) (A) (A) (A)
                 (A) (A) (A) (A) (A) (A) (A) (A) (A) (A) (A) (A)
                 (A) (A) (A) (A) (A) (A) (A) (A) (A) (A) (A) (A)
                 (A) (A) (A) (A) (A) (A) (A) (A) (A) (A) (A) (A)
                 (A) (A) (A) (A) (A) (A) (A) (A) (A) (A) (A) (A)
                 (A) (A) (A) (A) (A) (A) (A) (A) (A) (A) (A) (A)
                 (A) (A) (A) (A) (A) (A) (A) (A) (A) (A) (A) (A)
                 (A) (A) (A) (A) (A) (A) (A) (A) (A) (A) (A) (A)
                 (A) (A) (A) (A) (A) (A) (A) (A) (A) (A) (A) (A)
                 (A) (A) (A) (A) (A) (A) (A) (A) (A) (A) (A) (A)
                 (A) (A) (A) (A) (A) (A) (A) (A) (A) (A) (A) (A)
                 (A) (A) (A) (A) (A) (A) (A) (A) (A) (A) (A) (A)
                 (A) (A) (A) (A) (A) (A) (A) (A) (A) (A) (A) (A)
                 (A) (A) (A) (A) (A) (A) (A) (A) (A) (A) (A) (A)
                 (A) (A) (A) (A) (A) (A) (A) (A) (A) (A) (A) (A)
                 (A) (A) (A) (A) (A) (A) (A) (A) (A) (A) (A) (A)
                 (A) (A) (A) (A) (A) (A) (A) (A) (A) (A) (A) (A)
                 (A) (A) (A) (A) (A) (A) (A) (A) (A) (A) (A) (A)
                 (A) (A) (A) (A) (A) (A) (A) (A) (A) (A) (A) (A)
                 (A) (A) (A) (A) (A) (A) (A) (A) (A) (A) (A) (A)
                 (A) (A) (A) (A) (A) (A) (A) (A) (A) (A) (A) (A)
                 (A) (A) (A) (A) (A) (A) (A) (A) (A) (A) (A) (A)
                 (A) (A) (A) (A) (A) (A) (A) (A) (A) (A) (A) (A)
                 (A) (A) (A) (A) (A) (A) (A) (A) (A) (A) (A) (A)
                 (A) (A) (A) (A) (A) (A) (A) (A) (A) (A) (A) (A)
                 (A) (A) (A) (A) (A) (A) (A) (A) (A) (A) (A) (A)
                 (A) (A) (A) (A) (A) (A) (A) (A) (A) (A) (A) (A)
                 (A)
 The electronic state is 1-A.
 Alpha  occ. eigenvalues -- -482.84884-101.57211 -62.50178 -56.32212 -56.31827
 Alpha  occ. eigenvalues --  -56.31812 -19.17845 -19.16258 -19.14112 -19.10991
 Alpha  occ. eigenvalues --  -14.37892 -10.30471 -10.26676 -10.25818 -10.25623
 Alpha  occ. eigenvalues --  -10.25313 -10.25211 -10.24358 -10.23394 -10.22669
 Alpha  occ. eigenvalues --  -10.21491 -10.21454 -10.21418 -10.21265 -10.19562
 Alpha  occ. eigenvalues --  -10.18369 -10.17966 -10.17753 -10.17697  -9.48649
 Alpha  occ. eigenvalues --   -8.71161  -7.25121  -7.24111  -7.24107  -6.54308
 Alpha  occ. eigenvalues --   -6.53011  -6.52978  -2.65404  -2.65032  -2.65010
 Alpha  occ. eigenvalues --   -2.63977  -2.63976  -1.13639  -1.08898  -1.06286
 Alpha  occ. eigenvalues --   -1.04623  -1.00073  -0.91318  -0.89264  -0.87552
 Alpha  occ. eigenvalues --   -0.83810  -0.81316  -0.79734  -0.79473  -0.76996
 Alpha  occ. eigenvalues --   -0.75887  -0.75051  -0.71679  -0.68204  -0.66419
 Alpha  occ. eigenvalues --   -0.65256  -0.62940  -0.61842  -0.61045  -0.60126
 Alpha  occ. eigenvalues --   -0.56342  -0.56084  -0.54820  -0.53677  -0.52851
 Alpha  occ. eigenvalues --   -0.51363  -0.50958  -0.50200  -0.49919  -0.48497
 Alpha  occ. eigenvalues --   -0.48175  -0.47700  -0.46949  -0.46165  -0.45058
 Alpha  occ. eigenvalues --   -0.44823  -0.43852  -0.43058  -0.42567  -0.42358
 Alpha  occ. eigenvalues --   -0.40895  -0.39904  -0.39810  -0.39426  -0.39118
 Alpha  occ. eigenvalues --   -0.38867  -0.37263  -0.36553  -0.35846  -0.34227
 Alpha  occ. eigenvalues --   -0.33760  -0.33559  -0.33385  -0.32304  -0.31184
 Alpha  occ. eigenvalues --   -0.30083  -0.29676  -0.28982  -0.27639  -0.26770
 Alpha  occ. eigenvalues --   -0.23988  -0.23714
 Alpha virt. eigenvalues --   -0.06057  -0.05521  -0.03353  -0.03187  -0.02532
 Alpha virt. eigenvalues --   -0.01649  -0.01106  -0.00897  -0.00621  -0.00390
 Alpha virt. eigenvalues --    0.00417   0.00950   0.01369   0.01981   0.02178
 Alpha virt. eigenvalues --    0.02654   0.02918   0.03060   0.03616   0.03854
 Alpha virt. eigenvalues --    0.04897   0.04949   0.05204   0.05463   0.05787
 Alpha virt. eigenvalues --    0.06373   0.06613   0.06925   0.07237   0.07456
 Alpha virt. eigenvalues --    0.07757   0.07915   0.08166   0.08633   0.09006
 Alpha virt. eigenvalues --    0.09279   0.09359   0.09692   0.09804   0.10008
 Alpha virt. eigenvalues --    0.10206   0.10409   0.10708   0.10794   0.10991
 Alpha virt. eigenvalues --    0.11559   0.11612   0.11914   0.12128   0.12276
 Alpha virt. eigenvalues --    0.12717   0.12811   0.12922   0.13152   0.13336
 Alpha virt. eigenvalues --    0.13917   0.14105   0.14307   0.14423   0.14640
 Alpha virt. eigenvalues --    0.14992   0.15065   0.15293   0.15375   0.15768
 Alpha virt. eigenvalues --    0.15844   0.16222   0.16502   0.16616   0.16924
 Alpha virt. eigenvalues --    0.17147   0.17344   0.17799   0.18107   0.18216
 Alpha virt. eigenvalues --    0.19157   0.19316   0.19634   0.19744   0.19794
 Alpha virt. eigenvalues --    0.20456   0.20556   0.20820   0.20953   0.21233
 Alpha virt. eigenvalues --    0.21618   0.21981   0.22308   0.22501   0.22591
 Alpha virt. eigenvalues --    0.22758   0.23279   0.23554   0.24117   0.24279
 Alpha virt. eigenvalues --    0.24716   0.25053   0.25250   0.25470   0.26003
 Alpha virt. eigenvalues --    0.26229   0.26392   0.26727   0.26901   0.27140
 Alpha virt. eigenvalues --    0.27245   0.27604   0.27861   0.28076   0.28219
 Alpha virt. eigenvalues --    0.28795   0.28965   0.29124   0.29340   0.29764
 Alpha virt. eigenvalues --    0.29914   0.30179   0.30459   0.30921   0.31103
 Alpha virt. eigenvalues --    0.31820   0.31916   0.32171   0.32607   0.32687
 Alpha virt. eigenvalues --    0.33194   0.33733   0.34014   0.34264   0.34397
 Alpha virt. eigenvalues --    0.34879   0.35321   0.35562   0.36102   0.36232
 Alpha virt. eigenvalues --    0.36806   0.36936   0.37188   0.38080   0.38184
 Alpha virt. eigenvalues --    0.38884   0.39162   0.39556   0.40098   0.40508
 Alpha virt. eigenvalues --    0.40805   0.41554   0.41910   0.42429   0.43199
 Alpha virt. eigenvalues --    0.43667   0.44304   0.44614   0.44793   0.45123
 Alpha virt. eigenvalues --    0.45809   0.46464   0.47047   0.47781   0.48883
 Alpha virt. eigenvalues --    0.49747   0.49884   0.50622   0.50956   0.52071
 Alpha virt. eigenvalues --    0.52999   0.53640   0.54420   0.54920   0.55500
 Alpha virt. eigenvalues --    0.56361   0.56582   0.56945   0.57462   0.57975
 Alpha virt. eigenvalues --    0.58541   0.58606   0.59129   0.59560   0.59772
 Alpha virt. eigenvalues --    0.60007   0.61067   0.61442   0.62031   0.62399
 Alpha virt. eigenvalues --    0.62582   0.62783   0.63527   0.64390   0.64617
 Alpha virt. eigenvalues --    0.65177   0.66102   0.66369   0.66831   0.67077
 Alpha virt. eigenvalues --    0.67862   0.68624   0.69129   0.69882   0.69979
 Alpha virt. eigenvalues --    0.70452   0.70775   0.71487   0.71858   0.72361
 Alpha virt. eigenvalues --    0.72466   0.72674   0.73307   0.73545   0.74050
 Alpha virt. eigenvalues --    0.74296   0.75484   0.75734   0.75950   0.76427
 Alpha virt. eigenvalues --    0.77276   0.77699   0.78950   0.79655   0.79926
 Alpha virt. eigenvalues --    0.80412   0.80708   0.81842   0.82337   0.82737
 Alpha virt. eigenvalues --    0.84544   0.85053   0.85682   0.86032   0.86194
 Alpha virt. eigenvalues --    0.86523   0.86976   0.87375   0.88107   0.88713
 Alpha virt. eigenvalues --    0.89297   0.89689   0.90626   0.91078   0.91973
 Alpha virt. eigenvalues --    0.92408   0.92706   0.92939   0.93747   0.94595
 Alpha virt. eigenvalues --    0.95078   0.95630   0.96200   0.97282   0.97926
 Alpha virt. eigenvalues --    0.98616   0.99437   1.00246   1.00817   1.01973
 Alpha virt. eigenvalues --    1.02258   1.02720   1.03711   1.04235   1.04578
 Alpha virt. eigenvalues --    1.05145   1.05791   1.06684   1.07485   1.07827
 Alpha virt. eigenvalues --    1.08237   1.09188   1.09830   1.10434   1.11369
 Alpha virt. eigenvalues --    1.11884   1.12875   1.13278   1.15273   1.15704
 Alpha virt. eigenvalues --    1.17577   1.19000   1.20145   1.20734   1.22492
 Alpha virt. eigenvalues --    1.22682   1.24150   1.24708   1.25253   1.25809
 Alpha virt. eigenvalues --    1.27931   1.28752   1.29270   1.30065   1.31162
 Alpha virt. eigenvalues --    1.31861   1.32636   1.33893   1.34664   1.35994
 Alpha virt. eigenvalues --    1.37815   1.37993   1.40432   1.42615   1.43926
 Alpha virt. eigenvalues --    1.44873   1.45983   1.46963   1.47725   1.48437
 Alpha virt. eigenvalues --    1.50247   1.51828   1.52386   1.53435   1.54156
 Alpha virt. eigenvalues --    1.54864   1.55923   1.56194   1.56501   1.56959
 Alpha virt. eigenvalues --    1.57638   1.58753   1.59575   1.59731   1.60046
 Alpha virt. eigenvalues --    1.61504   1.62161   1.63099   1.64118   1.64481
 Alpha virt. eigenvalues --    1.65350   1.66185   1.67989   1.68317   1.69574
 Alpha virt. eigenvalues --    1.70446   1.70566   1.71831   1.72485   1.73051
 Alpha virt. eigenvalues --    1.73990   1.74151   1.75544   1.76138   1.76520
 Alpha virt. eigenvalues --    1.76671   1.77668   1.79698   1.80538   1.82349
 Alpha virt. eigenvalues --    1.83479   1.83804   1.85271   1.85938   1.87309
 Alpha virt. eigenvalues --    1.88604   1.89163   1.89797   1.90627   1.90851
 Alpha virt. eigenvalues --    1.91832   1.92246   1.92966   1.93704   1.94576
 Alpha virt. eigenvalues --    1.94735   1.95305   1.96508   1.97250   1.97629
 Alpha virt. eigenvalues --    1.99165   2.00270   2.01520   2.01963   2.02262
 Alpha virt. eigenvalues --    2.03138   2.04937   2.06110   2.06193   2.06762
 Alpha virt. eigenvalues --    2.07117   2.08689   2.09167   2.10358   2.11628
 Alpha virt. eigenvalues --    2.12083   2.12859   2.14336   2.14779   2.15709
 Alpha virt. eigenvalues --    2.18626   2.20182   2.20737   2.21694   2.24530
 Alpha virt. eigenvalues --    2.26457   2.26727   2.27302   2.28191   2.28965
 Alpha virt. eigenvalues --    2.31209   2.32351   2.35197   2.35576   2.37769
 Alpha virt. eigenvalues --    2.38150   2.39627   2.43789   2.44883   2.45875
 Alpha virt. eigenvalues --    2.47849   2.48463   2.49265   2.50682   2.51222
 Alpha virt. eigenvalues --    2.52159   2.53557   2.55655   2.57911   2.58284
 Alpha virt. eigenvalues --    2.59305   2.61598   2.63096   2.64547   2.65172
 Alpha virt. eigenvalues --    2.66351   2.67535   2.68145   2.69616   2.69787
 Alpha virt. eigenvalues --    2.70808   2.71445   2.72218   2.72800   2.73498
 Alpha virt. eigenvalues --    2.74915   2.75636   2.76115   2.77262   2.77982
 Alpha virt. eigenvalues --    2.78445   2.79108   2.80094   2.80490   2.81879
 Alpha virt. eigenvalues --    2.82831   2.84166   2.85242   2.86378   2.86799
 Alpha virt. eigenvalues --    2.88588   2.89475   2.91069   2.91452   2.92215
 Alpha virt. eigenvalues --    2.93244   2.94829   2.94900   2.95973   2.96353
 Alpha virt. eigenvalues --    2.97863   2.99559   3.00843   3.02719   3.05064
[...]
   443. RY*(  13) C  19                  0.00002     2.82720   
   444. RY*(  14) C  19                  0.00001     2.41038   
   445. RY*(  15) C  19                  0.00002     2.58203   
   446. RY*(  16) C  19                  0.00000    19.55485   
   447. RY*(  17) C  19                  0.00000     2.93382   
   448. RY*(   1) C  20                  0.00596     1.11986   
   449. RY*(   2) C  20                  0.00223     1.30951   
   450. RY*(   3) C  20                  0.00088     1.02675   
   451. RY*(   4) C  20                  0.00054     1.12416   
   452. RY*(   5) C  20                  0.00050     0.98682   
   453. RY*(   6) C  20                  0.00020     1.23419   
   454. RY*(   7) C  20                  0.00010     3.55799   
   455. RY*(   8) C  20                  0.00005     1.32112   
   456. RY*(   9) C  20                  0.00006     2.90803   
   457. RY*(  10) C  20                  0.00006     1.04076   
   458. RY*(  11) C  20                  0.00002     2.41825   
   459. RY*(  12) C  20                  0.00001     2.16066   
   460. RY*(  13) C  20                  0.00000    20.22674   
   461. RY*(  14) C  20                  0.00001     2.26055   
   462. RY*(  15) C  20                  0.00000     1.40181   
   463. RY*(  16) C  20                  0.00001     0.77640   
   464. RY*(  17) C  20                  0.00000     2.69874   
   465. RY*(   1) C  21                  0.00578     1.27568   
   466. RY*(   2) C  21                  0.00259     1.13242   
   467. RY*(   3) C  21                  0.00090     0.47093   
   468. RY*(   4) C  21                  0.00050     1.11999   
   469. RY*(   5) C  21                  0.00050     1.66997   
   470. RY*(   6) C  21                  0.00030     1.09824   
   471. RY*(   7) C  21                  0.00012     3.10836   
   472. RY*(   8) C  21                  0.00010     1.92461   
   473. RY*(   9) C  21                  0.00006     2.63613   
   474. RY*(  10) C  21                  0.00004     1.65935   
   475. RY*(  11) C  21                  0.00003     1.79909   
   476. RY*(  12) C  21                  0.00002     1.11101   
   477. RY*(  13) C  21                  0.00002     0.55156   
   478. RY*(  14) C  21                  0.00002     2.08546   
   479. RY*(  15) C  21                  0.00000    21.27511   
   480. RY*(  16) C  21                  0.00000     2.58693   
   481. RY*(  17) C  21                  0.00001     2.38149   
   482. RY*(   1) C  22                  0.00696     1.29670   
   483. RY*(   2) C  22                  0.00420     1.60675   
   484. RY*(   3) C  22                  0.00297     1.58266   
   485. RY*(   4) C  22                  0.00176     1.73255   
   486. RY*(   5) C  22                  0.00077     1.60439   
   487. RY*(   6) C  22                  0.00045     0.72212   
   488. RY*(   7) C  22                  0.00038     1.17019   
   489. RY*(   8) C  22                  0.00020     2.45380   
   490. RY*(   9) C  22                  0.00012     2.55329   
   491. RY*(  10) C  22                  0.00010     4.28255   
   492. RY*(  11) C  22                  0.00005     0.64186   
   493. RY*(  12) C  22                  0.00006     1.10580   
   494. RY*(  13) C  22                  0.00002     1.24160   
   495. RY*(  14) C  22                  0.00003     1.52032   
   496. RY*(  15) C  22                  0.00001     2.56503   
   497. RY*(  16) C  22                  0.00001     2.27068   
   498. RY*(  17) C  22                  0.00001    19.67870   
   499. RY*(   1) C  23                  0.00502     1.18137   
   500. RY*(   2) C  23                  0.00214     1.00864   
   501. RY*(   3) C  23                  0.00169     0.81166   
   502. RY*(   4) C  23                  0.00058     1.53589   
   503. RY*(   5) C  23                  0.00054     1.07309   
   504. RY*(   6) C  23                  0.00030     0.87438   
   505. RY*(   7) C  23                  0.00020     1.50834   
   506. RY*(   8) C  23                  0.00019     2.15381   
   507. RY*(   9) C  23                  0.00013     2.12710   
   508. RY*(  10) C  23                  0.00009     2.08025   
   509. RY*(  11) C  23                  0.00006     2.07061   
   510. RY*(  12) C  23                  0.00006     1.36481   
   511. RY*(  13) C  23                  0.00005     3.96527   
   512. RY*(  14) C  23                  0.00005     2.95771   
   513. RY*(  15) C  23                  0.00000    19.61482   
   514. RY*(  16) C  23                  0.00000     2.68706   
   515. RY*(  17) C  23                  0.00001     2.30882   
   516. RY*(   1) O  24                  0.00422     0.67326   
   517. RY*(   2) O  24                  0.00361     0.74581   
   518. RY*(   3) O  24                  0.00093     1.24684   
   519. RY*(   4) O  24                  0.00057     0.79373   
   520. RY*(   5) O  24                  0.00033     1.44852   
   521. RY*(   6) O  24                  0.00021     2.24634   
   522. RY*(   7) O  24                  0.00012     1.35470   
   523. RY*(   8) O  24                  0.00007     1.29281   
   524. RY*(   9) O  24                  0.00006     1.57447   
   525. RY*(  10) O  24                  0.00004     2.81286   
   526. RY*(  11) O  24                  0.00001     5.19356   
   527. RY*(  12) O  24                  0.00000     4.98543   
   528. RY*(  13) O  24                  0.00001     4.95798   
   529. RY*(  14) O  24                  0.00000    49.40109   
   530. RY*(  15) O  24                  0.00000     2.86615   
   531. RY*(  16) O  24                  0.00001     2.89534   
   532. RY*(  17) O  24                  0.00001     3.13554   
   533. RY*(   1) C  25                  0.00280     1.29179   
   534. RY*(   2) C  25                  0.00203     1.43135   
   535. RY*(   3) C  25                  0.00151     0.85963   
   536. RY*(   4) C  25                  0.00046     1.27981   
   537. RY*(   5) C  25                  0.00033     0.59171   
   538. RY*(   6) C  25                  0.00015     1.42714   
   539. RY*(   7) C  25                  0.00005     0.95591   
   540. RY*(   8) C  25                  0.00004     0.82902   
   541. RY*(   9) C  25                  0.00001     2.38393   
   542. RY*(  10) C  25                  0.00001     1.77700   
   543. RY*(  11) C  25                  0.00000     1.14992   
   544. RY*(  12) C  25                  0.00000     2.39066   
   545. RY*(  13) C  25                  0.00001     1.84042   
   546. RY*(  14) C  25                  0.00001     1.47803   
   547. RY*(  15) C  25                  0.00000     1.96279   
   548. RY*(  16) C  25                  0.00000    23.34059   
   549. RY*(  17) C  25                  0.00001     2.07932   
   550. RY*(   1) H  26                  0.00125     0.98396   
   551. RY*(   2) H  26                  0.00026     1.75843   
   552. RY*(   3) H  26                  0.00019     2.07166   
   553. RY*(   4) H  26                  0.00013     2.04131   
   554. RY*(   5) H  26                  0.00011     1.17789   
   555. RY*(   6) H  26                  0.00007     1.94149   
   556. RY*(   1) H  27                  0.00225     0.54986   
   557. RY*(   2) H  27                  0.00027     1.63562   
   558. RY*(   3) H  27                  0.00020     1.75859   
   559. RY*(   4) H  27                  0.00015     1.95927   
   560. RY*(   5) H  27                  0.00013     2.00960   
   561. RY*(   6) H  27                  0.00010     2.03690   
   562. RY*(   1) H  28                  0.00122     0.53449   
   563. RY*(   2) H  28                  0.00037     1.48435   
   564. RY*(   3) H  28                  0.00026     2.08842   
   565. RY*(   4) H  28                  0.00010     1.96824   
   566. RY*(   5) H  28                  0.00008     0.81097   
   567. RY*(   6) H  28                  0.00004     2.59386   
   568. RY*(   1) H  29                  0.00080     0.93149   
   569. RY*(   2) H  29                  0.00021     1.72908   
   570. RY*(   3) H  29                  0.00018     1.90658   
   571. RY*(   4) H  29                  0.00011     1.92411   
   572. RY*(   5) H  29                  0.00005     0.63724   
   573. RY*(   6) H  29                  0.00004     2.11669   
   574. RY*(   1) H  30                  0.00077     0.76923   
   575. RY*(   2) H  30                  0.00023     2.20023   
   576. RY*(   3) H  30                  0.00018     1.57456   
   577. RY*(   4) H  30                  0.00015     1.83608   
   578. RY*(   5) H  30                  0.00006     0.39204   
   579. RY*(   6) H  30                  0.00003     2.37666   
   580. RY*(   1) H  31                  0.00074     0.77353   
   581. RY*(   2) H  31                  0.00023     1.90784   
   582. RY*(   3) H  31                  0.00020     1.68914   
   583. RY*(   4) H  31                  0.00016     1.85929   
   584. RY*(   5) H  31                  0.00008     0.64380   
   585. RY*(   6) H  31                  0.00004     2.34074   
   586. RY*(   1) H  32                  0.00159     0.72961   
   587. RY*(   2) H  32                  0.00067     1.62876   
   588. RY*(   3) H  32                  0.00040     1.74048   
   589. RY*(   4) H  32                  0.00021     1.85853   
   590. RY*(   5) H  32                  0.00013     1.27380   
   591. RY*(   6) H  32                  0.00005     2.40294   
   592. RY*(   1) H  33                  0.00176     1.65247   
   593. RY*(   2) H  33                  0.00126     1.81389   
   594. RY*(   3) H  33                  0.00070     1.61837   
   595. RY*(   4) H  33                  0.00025     1.38811   
   596. RY*(   5) H  33                  0.00015     0.38983   
   597. RY*(   6) H  33                  0.00001     2.48079   
   598. RY*(   1) H  34                  0.00095     0.96173   
   599. RY*(   2) H  34                  0.00027     1.30631   
   600. RY*(   3) H  34                  0.00022     2.10369   
   601. RY*(   4) H  34                  0.00013     2.02905   
   602. RY*(   5) H  34                  0.00007     0.62012   
   603. RY*(   6) H  34                  0.00003     2.48544   
   604. RY*(   1) H  35                  0.00076     0.66869   
   605. RY*(   2) H  35                  0.00021     2.21568   
   606. RY*(   3) H  35                  0.00019     1.71773   
   607. RY*(   4) H  35                  0.00011     1.97941   
   608. RY*(   5) H  35                  0.00003     2.48472   
   609. RY*(   6) H  35                  0.00003     0.18769   
   610. RY*(   1) H  36                  0.00086     0.94857   
   611. RY*(   2) H  36                  0.00021     1.92058   
   612. RY*(   3) H  36                  0.00016     1.60394   
   613. RY*(   4) H  36                  0.00012     1.98960   
   614. RY*(   5) H  36                  0.00004     2.47404   
   615. RY*(   6) H  36                  0.00004     0.39070   
   616. RY*(   1) H  37                  0.00131     1.29494   
   617. RY*(   2) H  37                  0.00029     1.60480   
   618. RY*(   3) H  37                  0.00021     1.18555   
   619. RY*(   4) H  37                  0.00013     1.31163   
   620. RY*(   5) H  37                  0.00012     1.84759   
   621. RY*(   6) H  37                  0.00006     2.53326   
   622. RY*(   1) H  38                  0.00134     0.48253   
   623. RY*(   2) H  38                  0.00028     1.79080   
   624. RY*(   3) H  38                  0.00014     1.75029   
   625. RY*(   4) H  38                  0.00014     1.84935   
   626. RY*(   5) H  38                  0.00004     1.08664   
   627. RY*(   6) H  38                  0.00002     2.28263   
   628. RY*(   1) H  39                  0.00136     0.48222   
   629. RY*(   2) H  39                  0.00028     1.61305   
   630. RY*(   3) H  39                  0.00016     1.74671   
   631. RY*(   4) H  39                  0.00014     1.86191   
   632. RY*(   5) H  39                  0.00005     1.23346   
   633. RY*(   6) H  39                  0.00002     2.29940   
   634. RY*(   1) H  40                  0.00058     0.46139   
   635. RY*(   2) H  40                  0.00016     1.72141   
   636. RY*(   3) H  40                  0.00013     2.01790   
   637. RY*(   4) H  40                  0.00010     1.95142   
   638. RY*(   5) H  40                  0.00004     1.23115   
   639. RY*(   6) H  40                  0.00002     1.69016   
   640. BD*(   1) C   1 - C   2          0.02597     0.52827   
   641. BD*(   2) C   1 - C   2          0.39476    -0.01062  652(v),647(v),110(g),658(r)
                                                    129(g),656(v),144(v),128(g)
                                                    655(v)
   642. BD*(   1) C   1 - C   6          0.01589     0.54504   
   643. BD*(   1) C   1 - H  28          0.01286     0.40727   
   644. BD*(   1) C   2 - C   3          0.02352     0.52723   
   645. BD*(   1) C   2 - N   7          0.02912     0.37807   
   646. BD*(   1) C   3 - C   4          0.01552     0.54710   
   647. BD*(   2) C   3 - C   4          0.31928    -0.00386  641(v),652(v),163(g),145(g)
   648. BD*(   1) C   3 - H  29          0.01228     0.40443   
   649. BD*(   1) C   4 - C   5          0.02614     0.53843   
   650. BD*(   1) C   4 - H  30          0.01356     0.41211   
   651. BD*(   1) C   5 - C   6          0.02596     0.54032   
   652. BD*(   2) C   5 - C   6          0.38593    -0.01300  641(v),647(v),195(g),178(g)
                                                    161(v),401(v)
   653. BD*(   1) C   5 -Br  18          0.03385     0.07110   
   654. BD*(   1) C   6 - H  31          0.01366     0.41088   
   655. BD*(   1) N   7 - C   8          0.02725     0.44661   
   656. BD*(   1) N   7 - H  32          0.02208     0.35569   
   657. BD*(   1) C   8 - C   9          0.02682     0.58442   
   658. BD*(   2) C   8 - C   9          0.30091    -0.00627  667(v),246(g),663(v),664(v)
                                                    641(r),230(g),312(v)
   659. BD*(   1) C   8 - C  10          0.03605     0.35288   
   660. BD*(   1) C   9 - C  11          0.07992     0.43035   
   661. BD*(   1) C   9 -Cl  13          0.02798     0.14067   
   662. BD*(   1) C  10 - O  12          0.02854     0.24047   
   663. BD*(   1) C  10 - C  15          0.05381     0.31657   
   664. BD*(   1) C  10 - H  26          0.02684     0.37115   
   665. BD*(   1) C  11 - O  12          0.12174     0.30306  662(g),659(v),279(g),663(v)
                                                    661(v),657(v),307(g),286(g)
                                                    284(g)
   666. BD*(   1) C  11 - O  14          0.01271     0.63471   
   667. BD*(   2) C  11 - O  14          0.28520     0.00621  658(v),280(g),334(g)
   668. BD*(   1) C  15 - C  16          0.03568     0.39361   
   669. BD*(   1) C  15 - O  17          0.03109     0.26844   
   670. BD*(   1) C  15 - H  27          0.02355     0.37489   
   671. BD*(   1) C  16 - C  19          0.02199     0.57515   
   672. BD*(   2) C  16 - C  19          0.35867     0.02746  678(v),683(v),433(g),669(v)
                                                    663(v),369(g)
   673. BD*(   1) C  16 - C  23          0.02494     0.56405   
   674. BD*(   1) O  17 - H  33          0.00927     0.41788   
   675. BD*(   1) C  19 - C  20          0.01534     0.56922   
   676. BD*(   1) C  19 - H  34          0.01426     0.43552   
   677. BD*(   1) C  20 - C  21          0.01358     0.58670   
   678. BD*(   2) C  20 - C  21          0.31022     0.02641  672(v),683(v),467(g),451(g)
   679. BD*(   1) C  20 - H  35          0.01317     0.43932   
   680. BD*(   1) C  21 - C  22          0.02312     0.55189   
   681. BD*(   1) C  21 - H  36          0.01276     0.43659   
   682. BD*(   1) C  22 - C  23          0.02930     0.55812   
   683. BD*(   2) C  22 - C  23          0.37691     0.01780  678(v),672(v),501(g),467(v)
                                                    502(g),484(g)
   684. BD*(   1) C  22 - O  24          0.02990     0.35848   
   685. BD*(   1) C  23 - H  37          0.01650     0.44567   
   686. BD*(   1) O  24 - C  25          0.00938     0.27824   
   687. BD*(   1) C  25 - H  38          0.01801     0.37465   
   688. BD*(   1) C  25 - H  39          0.01819     0.37332   
   689. BD*(   1) C  25 - H  40          0.00873     0.39217   
       -------------------------------
              Total Lewis  209.80148  ( 98.0381%)
        Valence non-Lewis    3.81273  (  1.7816%)
        Rydberg non-Lewis    0.38579  (  0.1803%)
       -------------------------------
            Total unit  1  214.00000  (100.0000%)
           Charge unit  1    0.00000
 Leave Link  607 at Sun Jul 07 10:13:22 2019, MaxMem=   209715200 cpu:        12.0
 (Enter C:\G09W\l9999.exe)
 1|1|UNPC-CCSC-02011910|FOpt|RB3LYP|6-311++G(d,p)|C18H15Br1Cl1N1O4|EDUA
 RDO.MELO|07-Jul-2019|0||#p opt b3lyp/6-311++g(d,p) pop=nbo geom=connec
 tivity||9h.log||0,1|C,1.8686964518,-0.7621723404,-0.9798688361|C,1.679
 8354054,-1.5665169485,0.1482632774|C,2.6658635408,-1.5926319743,1.1413
 080356|C,3.816496875,-0.821839831,1.0171769752|C,3.9745089889,-0.00291
 53673,-0.0978392145|C,3.0068987232,0.0314999173,-1.0966996351|N,0.5435
 731199,-2.3956532913,0.2979405131|C,-0.7499063219,-2.1359930071,-0.031
 0334129|C,-1.7604453038,-3.0333504051,-0.0794483741|C,-1.340362249,-0.
 7620580041,-0.2821944146|C,-3.0223570761,-2.3693224385,-0.3759664005|O
 ,-2.7327314019,-1.0181511997,-0.5315427891|Cl,-1.6302461601,-4.7322056
 24,0.2075136223|O,-4.1359164852,-2.7944170131,-0.4934646522|C,-1.19011
 68222,0.2051600577,0.9243299235|C,-1.5765770591,1.6398653892,0.5997141
 372|O,-1.8682613037,-0.3160811299,2.0607058137|Br,5.5449768584,1.07865
 72641,-0.2623920478|C,-0.6732521101,2.6623117741,0.8841046544|C,-1.020
 3503861,3.9919786986,0.6302873645|C,-2.2599710525,4.3084088697,0.09834
 3966|C,-3.1728272678,3.2848252517,-0.1906218871|C,-2.8330682209,1.9533
 466199,0.0569593414|O,-4.363185546,3.6854373035,-0.717954673|C,-5.3394
 690784,2.6978469738,-1.0338544872|H,-0.9304370851,-0.2883118614,-1.175
 8539209|H,-0.1350587253,0.2025803027,1.203252745|H,1.1473244245,-0.772
 8941732,-1.7867480533|H,2.525281023,-2.2102447946,2.0214475353|H,4.573
 7551291,-0.8480092407,1.7898534831|H,3.1451704387,0.6531520433,-1.9717
 558344|H,0.7092969396,-3.317978567,0.6793280179|H,-2.818239651,-0.2303
 82299,1.9180818597|H,0.296182672,2.4268546425,1.3087616111|H,-0.316008
 2941,4.7853428947,0.853885689|H,-2.5464708911,5.3333922239,-0.10340058
 25|H,-3.5236713609,1.1573876911,-0.1815495248|H,-4.9690133265,1.995262
 8915,-1.7871311991|H,-5.6504543072,2.1444150608,-0.1417613872|H,-6.191
 5021043,3.2433096402,-1.4355002392||Version=IA32W-G09RevD.01|State=1-A
 |HF=-4085.2348906|RMSD=4.080e-009|RMSF=4.366e-006|Dipole=1.5106432,0.4
 304593,-0.0862833|Quadrupole=-4.082392,-0.5600935,4.6424855,-13.458852
 4,2.9952512,-3.8946738|PG=C01 [X(C18H15Br1Cl1N1O4)]||@


 WHEN A MATHEMATICIAN ENGAGED IN INVESTIGATING
 PHYSICAL ACTIONS AND RESULTS HAS ARRIVED AT HIS
 CONCLUSIONS, MAY THEY NOT BE EXPRESSED IN COMMON
 LANGUAGE AS FULLY, CLEARLY, AND DEFINITELY AS IN
 MATHEMATICAL FORMULAE?
           - LETTER FROM M. FARADAY TO J.C. MAXWELL, 1857.
 Job cpu time:       0 days  7 hours 25 minutes 43.0 seconds.
 File lengths (MBytes):  RWF=    279 Int=      0 D2E=      0 Chk=     31 Scr=      1
 Normal termination of Gaussian 09 at Sun Jul 07 10:13:23 2019.
