 Entering Link 1 = C:\G09W\l1.exe PID=      4276.
  
 Copyright (c) 1988,1990,1992,1993,1995,1998,2003,2009,2013,
            Gaussian, Inc.  All Rights Reserved.
  
 This is part of the Gaussian(R) 09 program.  It is based on
 the Gaussian(R) 03 system (copyright 2003, Gaussian, Inc.),
 the Gaussian(R) 98 system (copyright 1998, Gaussian, Inc.),
 the Gaussian(R) 94 system (copyright 1995, Gaussian, Inc.),
 the Gaussian 92(TM) system (copyright 1992, Gaussian, Inc.),
 the Gaussian 90(TM) system (copyright 1990, Gaussian, Inc.),
 the Gaussian 88(TM) system (copyright 1988, Gaussian, Inc.),
 the Gaussian 86(TM) system (copyright 1986, Carnegie Mellon
 University), and the Gaussian 82(TM) system (copyright 1983,
 Carnegie Mellon University). Gaussian is a federally registered
 trademark of Gaussian, Inc.
  
 This software contains proprietary and confidential information,
 including trade secrets, belonging to Gaussian, Inc.
  
 This software is provided under written license and may be
 used, copied, transmitted, or stored only in accord with that
 written license.
  
 The following legend is applicable only to US Government
 contracts under FAR:
  
                    RESTRICTED RIGHTS LEGEND
  
 Use, reproduction and disclosure by the US Government is
 subject to restrictions as set forth in subparagraphs (a)
 and (c) of the Commercial Computer Software - Restricted
 Rights clause in FAR 52.227-19.
  
 Gaussian, Inc.
 340 Quinnipiac St., Bldg. 40, Wallingford CT 06492
  
  
 ---------------------------------------------------------------
 Warning -- This program may not be used in any manner that
 competes with the business of Gaussian, Inc. or will provide
 assistance to any competitor of Gaussian, Inc.  The licensee
 of this program is prohibited from giving any competitor of
 Gaussian, Inc. access to this program.  By using this program,
 the user acknowledges that Gaussian, Inc. is engaged in the
 business of creating and licensing software in the field of
 computational chemistry and represents and warrants to the
 licensee that it is not a competitor of Gaussian, Inc. and that
 it will not use this program in any manner prohibited above.
 ---------------------------------------------------------------
  

 Cite this work as:
 Gaussian 09, Revision D.01,
 M. J. Frisch, G. W. Trucks, H. B. Schlegel, G. E. Scuseria, 
 M. A. Robb, J. R. Cheeseman, G. Scalmani, V. Barone, B. Mennucci, 
 G. A. Petersson, H. Nakatsuji, M. Caricato, X. Li, H. P. Hratchian, 
 A. F. Izmaylov, J. Bloino, G. Zheng, J. L. Sonnenberg, M. Hada, 
 M. Ehara, K. Toyota, R. Fukuda, J. Hasegawa, M. Ishida, T. Nakajima, 
 Y. Honda, O. Kitao, H. Nakai, T. Vreven, J. A. Montgomery, Jr., 
 J. E. Peralta, F. Ogliaro, M. Bearpark, J. J. Heyd, E. Brothers, 
 K. N. Kudin, V. N. Staroverov, T. Keith, R. Kobayashi, J. Normand, 
 K. Raghavachari, A. Rendell, J. C. Burant, S. S. Iyengar, J. Tomasi, 
 M. Cossi, N. Rega, J. M. Millam, M. Klene, J. E. Knox, J. B. Cross, 
 V. Bakken, C. Adamo, J. Jaramillo, R. Gomperts, R. E. Stratmann, 
 O. Yazyev, A. J. Austin, R. Cammi, C. Pomelli, J. W. Ochterski, 
 R. L. Martin, K. Morokuma, V. G. Zakrzewski, G. A. Voth, 
 P. Salvador, J. J. Dannenberg, S. Dapprich, A. D. Daniels, 
 O. Farkas, J. B. Foresman, J. V. Ortiz, J. Cioslowski, 
 and D. J. Fox, Gaussian, Inc., Wallingford CT, 2013.
 
 ******************************************
 Gaussian 09:  IA32W-G09RevD.01 24-Apr-2013
                07-Jul-2019 
 ******************************************
 %nprocshared=4
 Will use up to    4 processors via shared memory.
 %mem=1600MB
 ----------------------------------------------------
 #p opt b3lyp/6-311++g(d,p) pop=nbo geom=connectivity
 ----------------------------------------------------
 1/14=-1,18=20,19=15,26=3,38=1,57=2/1,3;
 2/9=110,12=2,17=6,18=5,40=1/2;
 3/5=4,6=6,7=1111,11=2,16=1,25=1,30=1,71=1,74=-5/1,2,3;
 4//1;
 5/5=2,38=5/2;
 6/7=2,8=2,9=2,10=2,28=1,40=1/1,7;
 7//1,2,3,16;
 1/14=-1,18=20,19=15,26=3/3(2);
 2/9=110/2;
 99//99;
 2/9=110/2;
 3/5=4,6=6,7=1111,11=2,16=1,25=1,30=1,71=1,74=-5/1,2,3;
 4/5=5,16=3,69=1/1;
 5/5=2,38=5/2;
 7//1,2,3,16;
 1/14=-1,18=20,19=15,26=3/3(-5);
 2/9=110/2;
 6/7=2,8=2,9=2,10=2,19=2,28=1,40=1/1,7;
 99/9=1/99;
 Leave Link    1 at Sun Jul 07 10:13:23 2019, MaxMem=   209715200 cpu:         0.0
 (Enter C:\G09W\l101.exe)
 ------
 9k.log
 ------
 Symbolic Z-matrix:
 Charge =  0 Multiplicity = 1
 C                     2.95445  -0.2743   -1.12358 
 C                     2.61758  -0.78674   0.11739 
 C                     3.2718   -0.31458   1.24815 
 C                     4.24359   0.65986   1.13084 
 C                     4.57811   1.20033  -0.1087 
 C                     3.91533   0.72082  -1.22886 
 N                     1.64064  -1.81121   0.25142 
 C                     0.35453  -1.74988  -0.14444 
 C                    -0.51683  -2.7547   -0.2652 
 C                    -0.38007  -0.46769  -0.48186 
 C                    -1.81324  -2.23754  -0.68146 
 O                    -1.66624  -0.90755  -0.85625 
 Cl                   -0.22113  -4.42054   0.04148 
 O                    -2.84122  -2.79116  -0.86671 
 C                    -0.48067   0.5131    0.70348 
 C                    -1.23708   1.7742    0.3025 
 O                    -0.9755   -0.12555   1.83339 
 C                     5.64501   2.26369  -0.21994 
 C                    -0.51887   2.86911  -0.15815 
 C                    -1.14684   4.0298   -0.57729 
 C                    -2.52571   4.10862  -0.52199 
 C                    -3.26464   3.03707  -0.05074 
 C                    -2.62816   1.87444   0.35438 
 O                    -3.33005   0.82321   0.85323 
 C                    -4.46506   0.36682   0.14291 
 H                     0.06538   0.03573  -1.33019 
 H                     0.53123   0.81061   0.94413 
 H                     2.4776   -0.65799  -2.00807 
 H                     3.00456  -0.70641   2.21323 
 H                     4.74042   1.015     2.01728 
 H                     4.15854   1.11198  -2.20129 
 H                     1.95931  -2.70505   0.55298 
 H                    -1.92013  -0.15318   1.7838 
 H                     5.66934   2.69481  -1.21365 
 H                     5.47267   3.06649   0.48959 
 H                     6.62775   1.84992  -0.01316 
 H                     0.5561    2.80952  -0.19251 
 H                    -0.56526   4.861    -0.9331 
 H                    -3.03165   5.00492  -0.83432 
 H                    -4.33471   3.10588   0.01004 
 H                    -4.26286   0.33608  -0.91901 
 H                    -4.66462  -0.6345    0.49212 
 H                    -5.32423   0.99677   0.34309 
 
 NAtoms=     43 NQM=       43 NQMF=       0 NMMI=      0 NMMIF=      0
                NMic=       0 NMicF=      0.
                    Isotopes and Nuclear Properties:
 (Nuclear quadrupole moments (NQMom) in fm**2, nuclear magnetic moments (NMagM)
  in nuclear magnetons)

  Atom         1           2           3           4           5           6           7           8           9          10
 IAtWgt=          12          12          12          12          12          12          14          12          12          12
 AtmWgt=  12.0000000  12.0000000  12.0000000  12.0000000  12.0000000  12.0000000  14.0030740  12.0000000  12.0000000  12.0000000
 NucSpn=           0           0           0           0           0           0           2           0           0           0
 AtZEff=   0.0000000   0.0000000   0.0000000   0.0000000   0.0000000   0.0000000   0.0000000   0.0000000   0.0000000   0.0000000
 NQMom=    0.0000000   0.0000000   0.0000000   0.0000000   0.0000000   0.0000000   2.0440000   0.0000000   0.0000000   0.0000000
 NMagM=    0.0000000   0.0000000   0.0000000   0.0000000   0.0000000   0.0000000   0.4037610   0.0000000   0.0000000   0.0000000
 AtZNuc=   6.0000000   6.0000000   6.0000000   6.0000000   6.0000000   6.0000000   7.0000000   6.0000000   6.0000000   6.0000000

  Atom        11          12          13          14          15          16          17          18          19          20
 IAtWgt=          12          16          35          16          12          12          16          12          12          12
 AtmWgt=  12.0000000  15.9949146  34.9688527  15.9949146  12.0000000  12.0000000  15.9949146  12.0000000  12.0000000  12.0000000
 NucSpn=           0           0           3           0           0           0           0           0           0           0
 AtZEff=   0.0000000   0.0000000   0.0000000   0.0000000   0.0000000   0.0000000   0.0000000   0.0000000   0.0000000   0.0000000
 NQMom=    0.0000000   0.0000000  -8.1650000   0.0000000   0.0000000   0.0000000   0.0000000   0.0000000   0.0000000   0.0000000
 NMagM=    0.0000000   0.0000000   0.8218740   0.0000000   0.0000000   0.0000000   0.0000000   0.0000000   0.0000000   0.0000000
 AtZNuc=   6.0000000   8.0000000  17.0000000   8.0000000   6.0000000   6.0000000   8.0000000   6.0000000   6.0000000   6.0000000

  Atom        21          22          23          24          25          26          27          28          29          30
 IAtWgt=          12          12          12          16          12           1           1           1           1           1
 AtmWgt=  12.0000000  12.0000000  12.0000000  15.9949146  12.0000000   1.0078250   1.0078250   1.0078250   1.0078250   1.0078250
 NucSpn=           0           0           0           0           0           1           1           1           1           1
 AtZEff=   0.0000000   0.0000000   0.0000000   0.0000000   0.0000000   0.0000000   0.0000000   0.0000000   0.0000000   0.0000000
 NQMom=    0.0000000   0.0000000   0.0000000   0.0000000   0.0000000   0.0000000   0.0000000   0.0000000   0.0000000   0.0000000
 NMagM=    0.0000000   0.0000000   0.0000000   0.0000000   0.0000000   2.7928460   2.7928460   2.7928460   2.7928460   2.7928460
 AtZNuc=   6.0000000   6.0000000   6.0000000   8.0000000   6.0000000   1.0000000   1.0000000   1.0000000   1.0000000   1.0000000

  Atom        31          32          33          34          35          36          37          38          39          40
 IAtWgt=           1           1           1           1           1           1           1           1           1           1
 AtmWgt=   1.0078250   1.0078250   1.0078250   1.0078250   1.0078250   1.0078250   1.0078250   1.0078250   1.0078250   1.0078250
 NucSpn=           1           1           1           1           1           1           1           1           1           1
 AtZEff=   0.0000000   0.0000000   0.0000000   0.0000000   0.0000000   0.0000000   0.0000000   0.0000000   0.0000000   0.0000000
 NQMom=    0.0000000   0.0000000   0.0000000   0.0000000   0.0000000   0.0000000   0.0000000   0.0000000   0.0000000   0.0000000
 NMagM=    2.7928460   2.7928460   2.7928460   2.7928460   2.7928460   2.7928460   2.7928460   2.7928460   2.7928460   2.7928460
 AtZNuc=   1.0000000   1.0000000   1.0000000   1.0000000   1.0000000   1.0000000   1.0000000   1.0000000   1.0000000   1.0000000

  Atom        41          42          43
 IAtWgt=           1           1           1
 AtmWgt=   1.0078250   1.0078250   1.0078250
 NucSpn=           1           1           1
 AtZEff=   0.0000000   0.0000000   0.0000000
 NQMom=    0.0000000   0.0000000   0.0000000
 NMagM=    2.7928460   2.7928460   2.7928460
 AtZNuc=   1.0000000   1.0000000   1.0000000
 Leave Link  101 at Sun Jul 07 10:13:23 2019, MaxMem=   209715200 cpu:         0.0
 (Enter C:\G09W\l103.exe)

 GradGradGradGradGradGradGradGradGradGradGradGradGradGradGradGradGradGrad
 Berny optimization.
 Initialization pass.
                           ----------------------------
                           !    Initial Parameters    !
                           ! (Angstroms and Degrees)  !
 --------------------------                            --------------------------
 ! Name  Definition              Value          Derivative Info.                !
 --------------------------------------------------------------------------------
 ! R1    R(1,2)                  1.3842         estimate D2E/DX2                !
 ! R2    R(1,6)                  1.3873         estimate D2E/DX2                !
 ! R3    R(1,28)                 1.0756         estimate D2E/DX2                !
 ! R4    R(2,3)                  1.3891         estimate D2E/DX2                !
 ! R5    R(2,7)                  1.4219         estimate D2E/DX2                !
 ! R6    R(3,4)                  1.3812         estimate D2E/DX2                !
 ! R7    R(3,29)                 1.0753         estimate D2E/DX2                !
 ! R8    R(4,5)                  1.393          estimate D2E/DX2                !
 ! R9    R(4,30)                 1.0765         estimate D2E/DX2                !
 ! R10   R(5,6)                  1.3871         estimate D2E/DX2                !
 ! R11   R(5,18)                 1.5104         estimate D2E/DX2                !
 ! R12   R(6,31)                 1.076          estimate D2E/DX2                !
 ! R13   R(7,8)                  1.347          estimate D2E/DX2                !
 ! R14   R(7,32)                 0.9957         estimate D2E/DX2                !
 ! R15   R(8,9)                  1.3355         estimate D2E/DX2                !
 ! R16   R(8,10)                 1.5158         estimate D2E/DX2                !
 ! R17   R(9,11)                 1.4565         estimate D2E/DX2                !
 ! R18   R(9,13)                 1.7195         estimate D2E/DX2                !
 ! R19   R(10,12)                1.4099         estimate D2E/DX2                !
 ! R20   R(10,15)                1.5418         estimate D2E/DX2                !
 ! R21   R(10,26)                1.0824         estimate D2E/DX2                !
 ! R22   R(11,12)                1.3495         estimate D2E/DX2                !
 ! R23   R(11,14)                1.1822         estimate D2E/DX2                !
 ! R24   R(15,16)                1.5242         estimate D2E/DX2                !
 ! R25   R(15,17)                1.389          estimate D2E/DX2                !
 ! R26   R(15,27)                1.0818         estimate D2E/DX2                !
 ! R27   R(16,19)                1.3881         estimate D2E/DX2                !
 ! R28   R(16,23)                1.3957         estimate D2E/DX2                !
 ! R29   R(17,33)                0.9463         estimate D2E/DX2                !
 ! R30   R(18,34)                1.0835         estimate D2E/DX2                !
 ! R31   R(18,35)                1.0852         estimate D2E/DX2                !
 ! R32   R(18,36)                1.0862         estimate D2E/DX2                !
 ! R33   R(19,20)                1.3846         estimate D2E/DX2                !
 ! R34   R(19,37)                1.0772         estimate D2E/DX2                !
 ! R35   R(20,21)                1.3822         estimate D2E/DX2                !
 ! R36   R(20,38)                1.075          estimate D2E/DX2                !
 ! R37   R(21,22)                1.3843         estimate D2E/DX2                !
 ! R38   R(21,39)                1.0756         estimate D2E/DX2                !
 ! R39   R(22,23)                1.386          estimate D2E/DX2                !
 ! R40   R(22,40)                1.074          estimate D2E/DX2                !
 ! R41   R(23,24)                1.3589         estimate D2E/DX2                !
 ! R42   R(24,25)                1.4146         estimate D2E/DX2                !
 ! R43   R(25,41)                1.0814         estimate D2E/DX2                !
 ! R44   R(25,42)                1.0791         estimate D2E/DX2                !
 ! R45   R(25,43)                1.084          estimate D2E/DX2                !
 ! A1    A(2,1,6)              120.1417         estimate D2E/DX2                !
 ! A2    A(2,1,28)             119.8193         estimate D2E/DX2                !
 ! A3    A(6,1,28)             120.035          estimate D2E/DX2                !
 ! A4    A(1,2,3)              119.2968         estimate D2E/DX2                !
 ! A5    A(1,2,7)              121.227          estimate D2E/DX2                !
 ! A6    A(3,2,7)              119.4551         estimate D2E/DX2                !
 ! A7    A(2,3,4)              120.1349         estimate D2E/DX2                !
 ! A8    A(2,3,29)             119.3195         estimate D2E/DX2                !
 ! A9    A(4,3,29)             120.541          estimate D2E/DX2                !
 ! A10   A(3,4,5)              121.2166         estimate D2E/DX2                !
 ! A11   A(3,4,30)             119.1804         estimate D2E/DX2                !
 ! A12   A(5,4,30)             119.5981         estimate D2E/DX2                !
 ! A13   A(4,5,6)              118.0167         estimate D2E/DX2                !
 ! A14   A(4,5,18)             120.5517         estimate D2E/DX2                !
 ! A15   A(6,5,18)             121.4269         estimate D2E/DX2                !
 ! A16   A(1,6,5)              121.1737         estimate D2E/DX2                !
 ! A17   A(1,6,31)             119.071          estimate D2E/DX2                !
 ! A18   A(5,6,31)             119.747          estimate D2E/DX2                !
 ! A19   A(2,7,8)              126.5456         estimate D2E/DX2                !
 ! A20   A(2,7,32)             117.0926         estimate D2E/DX2                !
 ! A21   A(8,7,32)             115.8128         estimate D2E/DX2                !
 ! A22   A(7,8,9)              127.9718         estimate D2E/DX2                !
 ! A23   A(7,8,10)             124.5169         estimate D2E/DX2                !
 ! A24   A(9,8,10)             107.4646         estimate D2E/DX2                !
 ! A25   A(8,9,11)             109.8433         estimate D2E/DX2                !
 ! A26   A(8,9,13)             126.913          estimate D2E/DX2                !
 ! A27   A(11,9,13)            123.2325         estimate D2E/DX2                !
 ! A28   A(8,10,12)            103.7277         estimate D2E/DX2                !
 ! A29   A(8,10,15)            113.4901         estimate D2E/DX2                !
 ! A30   A(8,10,26)            111.6207         estimate D2E/DX2                !
 ! A31   A(12,10,15)           110.0651         estimate D2E/DX2                !
 ! A32   A(12,10,26)           108.2047         estimate D2E/DX2                !
 ! A33   A(15,10,26)           109.4848         estimate D2E/DX2                !
 ! A34   A(9,11,12)            106.858          estimate D2E/DX2                !
 ! A35   A(9,11,14)            130.7299         estimate D2E/DX2                !
 ! A36   A(12,11,14)           122.4097         estimate D2E/DX2                !
 ! A37   A(10,12,11)           111.8672         estimate D2E/DX2                !
 ! A38   A(10,15,16)           110.8821         estimate D2E/DX2                !
 ! A39   A(10,15,17)           110.8643         estimate D2E/DX2                !
 ! A40   A(10,15,27)           106.5547         estimate D2E/DX2                !
 ! A41   A(16,15,17)           114.6839         estimate D2E/DX2                !
 ! A42   A(16,15,27)           107.1669         estimate D2E/DX2                !
 ! A43   A(17,15,27)           106.1827         estimate D2E/DX2                !
 ! A44   A(15,16,19)           118.8912         estimate D2E/DX2                !
 ! A45   A(15,16,23)           122.9748         estimate D2E/DX2                !
 ! A46   A(19,16,23)           118.1243         estimate D2E/DX2                !
 ! A47   A(15,17,33)           109.05           estimate D2E/DX2                !
 ! A48   A(5,18,34)            111.3182         estimate D2E/DX2                !
 ! A49   A(5,18,35)            111.1301         estimate D2E/DX2                !
 ! A50   A(5,18,36)            110.9089         estimate D2E/DX2                !
 ! A51   A(34,18,35)           107.9914         estimate D2E/DX2                !
 ! A52   A(34,18,36)           107.8103         estimate D2E/DX2                !
 ! A53   A(35,18,36)           107.5192         estimate D2E/DX2                !
 ! A54   A(16,19,20)           121.8033         estimate D2E/DX2                !
 ! A55   A(16,19,37)           118.9002         estimate D2E/DX2                !
 ! A56   A(20,19,37)           119.2962         estimate D2E/DX2                !
 ! A57   A(19,20,21)           119.2167         estimate D2E/DX2                !
 ! A58   A(19,20,38)           120.196          estimate D2E/DX2                !
 ! A59   A(21,20,38)           120.5853         estimate D2E/DX2                !
 ! A60   A(20,21,22)           120.1305         estimate D2E/DX2                !
 ! A61   A(20,21,39)           120.3411         estimate D2E/DX2                !
 ! A62   A(22,21,39)           119.5252         estimate D2E/DX2                !
 ! A63   A(21,22,23)           120.2453         estimate D2E/DX2                !
 ! A64   A(21,22,40)           120.0993         estimate D2E/DX2                !
 ! A65   A(23,22,40)           119.6535         estimate D2E/DX2                !
 ! A66   A(16,23,22)           120.4713         estimate D2E/DX2                !
 ! A67   A(16,23,24)           118.2233         estimate D2E/DX2                !
 ! A68   A(22,23,24)           121.2675         estimate D2E/DX2                !
 ! A69   A(23,24,25)           118.6643         estimate D2E/DX2                !
 ! A70   A(24,25,41)           110.6237         estimate D2E/DX2                !
 ! A71   A(24,25,42)           106.5746         estimate D2E/DX2                !
 ! A72   A(24,25,43)           110.8371         estimate D2E/DX2                !
 ! A73   A(41,25,42)           109.0252         estimate D2E/DX2                !
 ! A74   A(41,25,43)           110.2455         estimate D2E/DX2                !
 ! A75   A(42,25,43)           109.4455         estimate D2E/DX2                !
 ! D1    D(6,1,2,3)             -1.3849         estimate D2E/DX2                !
 ! D2    D(6,1,2,7)           -179.7027         estimate D2E/DX2                !
 ! D3    D(28,1,2,3)           177.8833         estimate D2E/DX2                !
 ! D4    D(28,1,2,7)            -0.4344         estimate D2E/DX2                !
 ! D5    D(2,1,6,5)              1.5085         estimate D2E/DX2                !
 ! D6    D(2,1,6,31)          -179.5415         estimate D2E/DX2                !
 ! D7    D(28,1,6,5)          -177.7581         estimate D2E/DX2                !
 ! D8    D(28,1,6,31)            1.1918         estimate D2E/DX2                !
 ! D9    D(1,2,3,4)              0.2611         estimate D2E/DX2                !
 ! D10   D(1,2,3,29)           179.4858         estimate D2E/DX2                !
 ! D11   D(7,2,3,4)            178.609          estimate D2E/DX2                !
 ! D12   D(7,2,3,29)            -2.1663         estimate D2E/DX2                !
 ! D13   D(1,2,7,8)            -58.7239         estimate D2E/DX2                !
 ! D14   D(1,2,7,32)           112.379          estimate D2E/DX2                !
 ! D15   D(3,2,7,8)            122.9609         estimate D2E/DX2                !
 ! D16   D(3,2,7,32)           -65.9361         estimate D2E/DX2                !
 ! D17   D(2,3,4,5)              0.777          estimate D2E/DX2                !
 ! D18   D(2,3,4,30)           179.9662         estimate D2E/DX2                !
 ! D19   D(29,3,4,5)          -178.4381         estimate D2E/DX2                !
 ! D20   D(29,3,4,30)            0.7511         estimate D2E/DX2                !
 ! D21   D(3,4,5,6)             -0.6675         estimate D2E/DX2                !
 ! D22   D(3,4,5,18)          -179.8925         estimate D2E/DX2                !
 ! D23   D(30,4,5,6)          -179.8534         estimate D2E/DX2                !
 ! D24   D(30,4,5,18)            0.9216         estimate D2E/DX2                !
 ! D25   D(4,5,6,1)             -0.4735         estimate D2E/DX2                !
 ! D26   D(4,5,6,31)          -179.4164         estimate D2E/DX2                !
 ! D27   D(18,5,6,1)           178.7444         estimate D2E/DX2                !
 ! D28   D(18,5,6,31)           -0.1985         estimate D2E/DX2                !
 ! D29   D(4,5,18,34)         -170.4332         estimate D2E/DX2                !
 ! D30   D(4,5,18,35)          -50.0168         estimate D2E/DX2                !
 ! D31   D(4,5,18,36)           69.5292         estimate D2E/DX2                !
 ! D32   D(6,5,18,34)           10.3686         estimate D2E/DX2                !
 ! D33   D(6,5,18,35)          130.785          estimate D2E/DX2                !
 ! D34   D(6,5,18,36)         -109.669          estimate D2E/DX2                !
 ! D35   D(2,7,8,9)            166.3636         estimate D2E/DX2                !
 ! D36   D(2,7,8,10)           -16.4415         estimate D2E/DX2                !
 ! D37   D(32,7,8,9)            -4.8384         estimate D2E/DX2                !
 ! D38   D(32,7,8,10)          172.3564         estimate D2E/DX2                !
 ! D39   D(7,8,9,11)           178.1373         estimate D2E/DX2                !
 ! D40   D(7,8,9,13)            -0.6751         estimate D2E/DX2                !
 ! D41   D(10,8,9,11)            0.56           estimate D2E/DX2                !
 ! D42   D(10,8,9,13)         -178.2524         estimate D2E/DX2                !
 ! D43   D(7,8,10,12)          179.0726         estimate D2E/DX2                !
 ! D44   D(7,8,10,15)          -61.5041         estimate D2E/DX2                !
 ! D45   D(7,8,10,26)           62.7925         estimate D2E/DX2                !
 ! D46   D(9,8,10,12)           -3.2452         estimate D2E/DX2                !
 ! D47   D(9,8,10,15)          116.178          estimate D2E/DX2                !
 ! D48   D(9,8,10,26)         -119.5254         estimate D2E/DX2                !
 ! D49   D(8,9,11,12)            2.4971         estimate D2E/DX2                !
 ! D50   D(8,9,11,14)         -178.0685         estimate D2E/DX2                !
 ! D51   D(13,9,11,12)        -178.638          estimate D2E/DX2                !
 ! D52   D(13,9,11,14)           0.7963         estimate D2E/DX2                !
 ! D53   D(8,10,12,11)           4.9802         estimate D2E/DX2                !
 ! D54   D(15,10,12,11)       -116.7589         estimate D2E/DX2                !
 ! D55   D(26,10,12,11)        123.6408         estimate D2E/DX2                !
 ! D56   D(8,10,15,16)        -179.5898         estimate D2E/DX2                !
 ! D57   D(8,10,15,17)         -50.9996         estimate D2E/DX2                !
 ! D58   D(8,10,15,27)          64.1166         estimate D2E/DX2                !
 ! D59   D(12,10,15,16)        -63.8545         estimate D2E/DX2                !
 ! D60   D(12,10,15,17)         64.7357         estimate D2E/DX2                !
 ! D61   D(12,10,15,27)        179.8519         estimate D2E/DX2                !
 ! D62   D(26,10,15,16)         54.9643         estimate D2E/DX2                !
 ! D63   D(26,10,15,17)       -176.4455         estimate D2E/DX2                !
 ! D64   D(26,10,15,27)        -61.3293         estimate D2E/DX2                !
 ! D65   D(9,11,12,10)          -4.773          estimate D2E/DX2                !
 ! D66   D(14,11,12,10)        175.7347         estimate D2E/DX2                !
 ! D67   D(10,15,16,19)        -92.8489         estimate D2E/DX2                !
 ! D68   D(10,15,16,23)         85.9984         estimate D2E/DX2                !
 ! D69   D(17,15,16,19)        140.6477         estimate D2E/DX2                !
 ! D70   D(17,15,16,23)        -40.505          estimate D2E/DX2                !
 ! D71   D(27,15,16,19)         23.066          estimate D2E/DX2                !
 ! D72   D(27,15,16,23)       -158.0867         estimate D2E/DX2                !
 ! D73   D(10,15,17,33)        -82.8477         estimate D2E/DX2                !
 ! D74   D(16,15,17,33)         43.6649         estimate D2E/DX2                !
 ! D75   D(27,15,17,33)        161.8043         estimate D2E/DX2                !
 ! D76   D(15,16,19,20)        177.9717         estimate D2E/DX2                !
 ! D77   D(15,16,19,37)         -1.8051         estimate D2E/DX2                !
 ! D78   D(23,16,19,20)         -0.9318         estimate D2E/DX2                !
 ! D79   D(23,16,19,37)        179.2914         estimate D2E/DX2                !
 ! D80   D(15,16,23,22)       -178.5734         estimate D2E/DX2                !
 ! D81   D(15,16,23,24)          3.6372         estimate D2E/DX2                !
 ! D82   D(19,16,23,22)          0.2822         estimate D2E/DX2                !
 ! D83   D(19,16,23,24)       -177.5071         estimate D2E/DX2                !
 ! D84   D(16,19,20,21)          0.7609         estimate D2E/DX2                !
 ! D85   D(16,19,20,38)       -179.7528         estimate D2E/DX2                !
 ! D86   D(37,19,20,21)       -179.4632         estimate D2E/DX2                !
 ! D87   D(37,19,20,38)          0.0232         estimate D2E/DX2                !
 ! D88   D(19,20,21,22)          0.0735         estimate D2E/DX2                !
 ! D89   D(19,20,21,39)        179.4263         estimate D2E/DX2                !
 ! D90   D(38,20,21,22)       -179.4108         estimate D2E/DX2                !
 ! D91   D(38,20,21,39)         -0.058          estimate D2E/DX2                !
 ! D92   D(20,21,22,23)         -0.7069         estimate D2E/DX2                !
 ! D93   D(20,21,22,40)        178.8039         estimate D2E/DX2                !
 ! D94   D(39,21,22,23)        179.935          estimate D2E/DX2                !
 ! D95   D(39,21,22,40)         -0.5541         estimate D2E/DX2                !
 ! D96   D(21,22,23,16)          0.5247         estimate D2E/DX2                !
 ! D97   D(21,22,23,24)        178.2458         estimate D2E/DX2                !
 ! D98   D(40,22,23,16)       -178.9883         estimate D2E/DX2                !
 ! D99   D(40,22,23,24)         -1.2672         estimate D2E/DX2                !
 ! D100  D(16,23,24,25)       -133.3834         estimate D2E/DX2                !
 ! D101  D(22,23,24,25)         48.8458         estimate D2E/DX2                !
 ! D102  D(23,24,25,41)         42.6488         estimate D2E/DX2                !
 ! D103  D(23,24,25,42)        161.0353         estimate D2E/DX2                !
 ! D104  D(23,24,25,43)        -79.9568         estimate D2E/DX2                !
 --------------------------------------------------------------------------------
 Trust Radius=3.00D-01 FncErr=1.00D-07 GrdErr=1.00D-06
 Number of steps in this run=    234 maximum allowed number of steps=    258.
 GradGradGradGradGradGradGradGradGradGradGradGradGradGradGradGradGradGrad

 Leave Link  103 at Sun Jul 07 10:13:23 2019, MaxMem=   209715200 cpu:         0.0
 (Enter C:\G09W\l202.exe)
                          Input orientation:                          
 ---------------------------------------------------------------------
 Center     Atomic      Atomic             Coordinates (Angstroms)
 Number     Number       Type             X           Y           Z
 ---------------------------------------------------------------------
      1          6           0        2.954453   -0.274297   -1.123576
      2          6           0        2.617581   -0.786738    0.117387
      3          6           0        3.271802   -0.314580    1.248149
      4          6           0        4.243585    0.659855    1.130836
      5          6           0        4.578105    1.200329   -0.108697
      6          6           0        3.915333    0.720821   -1.228857
      7          7           0        1.640641   -1.811212    0.251420
      8          6           0        0.354533   -1.749883   -0.144436
      9          6           0       -0.516831   -2.754696   -0.265201
     10          6           0       -0.380068   -0.467685   -0.481861
     11          6           0       -1.813238   -2.237545   -0.681456
     12          8           0       -1.666236   -0.907553   -0.856250
     13         17           0       -0.221130   -4.420542    0.041478
     14          8           0       -2.841224   -2.791160   -0.866706
     15          6           0       -0.480671    0.513095    0.703479
     16          6           0       -1.237078    1.774197    0.302500
     17          8           0       -0.975498   -0.125551    1.833389
     18          6           0        5.645005    2.263694   -0.219943
     19          6           0       -0.518871    2.869112   -0.158154
     20          6           0       -1.146841    4.029804   -0.577285
     21          6           0       -2.525710    4.108620   -0.521991
     22          6           0       -3.264641    3.037065   -0.050738
     23          6           0       -2.628163    1.874437    0.354380
     24          8           0       -3.330049    0.823213    0.853231
     25          6           0       -4.465061    0.366818    0.142907
     26          1           0        0.065382    0.035731   -1.330186
     27          1           0        0.531231    0.810611    0.944131
     28          1           0        2.477604   -0.657991   -2.008075
     29          1           0        3.004565   -0.706405    2.213233
     30          1           0        4.740421    1.014998    2.017275
     31          1           0        4.158539    1.111975   -2.201288
     32          1           0        1.959306   -2.705049    0.552978
     33          1           0       -1.920131   -0.153179    1.783800
     34          1           0        5.669344    2.694812   -1.213654
     35          1           0        5.472670    3.066494    0.489591
     36          1           0        6.627753    1.849919   -0.013155
     37          1           0        0.556099    2.809515   -0.192512
     38          1           0       -0.565263    4.860997   -0.933102
     39          1           0       -3.031652    5.004917   -0.834320
     40          1           0       -4.334713    3.105881    0.010040
     41          1           0       -4.262865    0.336079   -0.919006
     42          1           0       -4.664622   -0.634496    0.492119
     43          1           0       -5.324229    0.996768    0.343089
 ---------------------------------------------------------------------
                    Distance matrix (angstroms):
                    1          2          3          4          5
     1  C    0.000000
     2  C    1.384221   0.000000
     3  C    2.393201   1.389086   0.000000
     4  C    2.759869   2.400750   1.381176   0.000000
     5  C    2.416764   2.800572   2.417107   1.393003   0.000000
     6  C    1.387312   2.401930   2.760751   2.383195   1.387066
     7  N    2.445163   1.421944   2.427769   3.695249   4.222293
     8  C    3.145736   2.473375   3.536926   4.749514   5.152047
     9  C    4.351896   3.720722   4.753750   6.022428   6.451751
    10  C    3.401210   3.073563   4.043826   5.024968   5.244521
    11  C    5.175006   4.730238   5.768778   6.954454   7.279855
    12  O    4.671535   4.394730   5.400401   6.428939   6.632782
    13  Cl   5.350984   4.611786   5.524088   6.850607   7.392523
    14  O    6.323801   5.897855   6.926409   8.129834   8.458901
    15  C    3.969659   3.410606   3.881078   4.745816   5.169442
    16  C    4.878417   4.631528   5.058383   5.653810   5.857880
    17  O    4.920395   4.036341   4.291596   5.324403   6.030934
    18  C    3.807495   4.310942   3.799327   2.522079   1.510429
    19  C    4.782995   4.824779   5.146143   5.405858   5.363436
    20  C    5.970287   6.152440   6.459898   6.582623   6.403164
    21  C    7.043014   7.129290   7.503948   7.774907   7.687207
    22  C    7.126937   7.017854   7.459606   7.963712   8.055161
    23  C    6.161738   5.886922   6.356116   7.021326   7.252528
    24  O    6.678867   6.205458   6.710810   7.580480   7.975363
    25  C    7.554085   7.176013   7.845057   8.769401   9.084982
    26  H    2.912994   3.047235   4.129365   4.889125   4.817986
    27  H    3.365181   2.754612   2.978122   3.720102   4.199704
    28  H    1.075614   2.133954   3.369225   3.835123   3.387196
    29  H    3.365044   2.132787   1.075328   2.138556   3.391610
    30  H    3.836262   3.370798   2.125129   1.076451   2.140199
    31  H    2.129093   3.369854   3.836662   3.363732   2.136066
    32  H    3.116040   2.074363   2.814294   4.107850   4.748463
    33  H    5.677066   4.875362   5.221986   6.251302   6.902217
    34  H    4.024221   4.817273   4.567836   3.416207   2.155275
    35  H    4.483816   4.810142   4.104984   2.777365   2.154244
    36  H    4.386167   4.801092   4.187881   2.899866   2.152244
    37  H    4.016078   4.156775   4.382980   4.468763   4.332786
    38  H    6.228638   6.567415   6.802023   6.710771   6.366661
    39  H    7.986690   8.146340   8.506895   8.698878   8.538725
    40  H    8.114347   7.968588   8.431580   8.990352   9.115018
    41  H    7.245970   7.048075   7.867091   8.755934   8.919993
    42  H    7.796827   7.293427   7.978769   9.024381   9.442222
    43  H    8.503134   8.142738   8.742455   9.606098   9.914725
                    6          7          8          9         10
     6  C    0.000000
     7  N    3.711689   0.000000
     8  C    4.467622   1.347048   0.000000
     9  C    5.714187   2.410756   1.335481   0.000000
    10  C    4.518962   2.534962   1.515759   2.301318   0.000000
    11  C    6.470557   3.602957   2.285921   1.456497   2.286092
    12  O    5.826178   3.602633   2.302109   2.254420   1.409922
    13  Cl   6.719947   3.212300   2.738315   1.719457   3.990517
    14  O    7.623400   4.722035   3.437847   2.401237   3.406454
    15  C    4.806446   3.179108   2.556872   3.408534   1.541779
    16  C    5.477408   4.597720   3.892572   4.620813   2.525019
    17  O    5.832146   3.491169   2.884307   3.395123   2.414948
    18  C    2.527871   5.732536   6.641054   7.946981   6.620463
    19  C    5.042194   5.170752   4.700866   5.624827   3.355334
    20  C    6.082723   6.524897   5.987175   6.820832   4.563382
    21  C    7.311900   7.280182   6.539144   7.155882   5.054499
    22  C    7.635770   6.903541   6.001839   6.414121   4.559594
    23  C    6.830433   5.640682   4.720274   5.125473   3.352427
    24  O    7.539306   5.657750   4.603510   4.686845   3.485868
    25  C    8.499298   6.483455   5.271762   5.049646   4.215910
    26  H    3.911744   2.897260   2.162875   3.042967   1.082363
    27  H    4.022696   2.929948   2.787890   3.907983   2.120839
    28  H    2.139011   2.671281   3.028665   4.049744   3.245279
    29  H    3.835943   2.632413   3.697312   4.768476   4.333158
    30  H    3.362244   4.551301   5.617257   6.859955   5.887566
    31  H    1.075998   4.571718   5.185685   6.368568   5.103989
    32  H    4.328691   0.995705   1.993496   2.608282   3.398435
    33  H    6.625150   4.216202   3.382551   3.596602   2.757522
    34  H    2.640725   6.219417   7.010403   8.298522   6.865296
    35  H    3.298567   6.207511   7.056543   8.386303   6.905699
    36  H    3.179625   6.192347   7.233885   8.503593   7.395981
    37  H    4.089145   4.767014   4.564105   5.667178   3.420551
    38  H    6.107722   7.126533   6.720993   7.645078   5.350959
    39  H    8.171275   8.334793   7.587458   8.176785   6.091346
    40  H    8.676787   7.742152   6.752136   6.999882   5.352715
    41  H    8.193104   6.390003   5.125579   4.900319   3.989141
    42  H    8.855183   6.418640   5.180850   4.719423   4.397029
    43  H    9.376389   7.510164   6.326935   6.128179   5.222058
                   11         12         13         14         15
    11  C    0.000000
    12  O    1.349460   0.000000
    13  Cl   2.796948   3.903247   0.000000
    14  O    1.182185   2.220063   3.216299   0.000000
    15  C    3.355563   2.420033   4.984614   4.353825   0.000000
    16  C    4.170636   2.952738   6.282919   4.978234   1.524242
    17  O    3.389214   2.884927   4.714548   4.228110   1.389035
    18  C    8.723505   7.994744   8.897128   9.898784   6.437485
    19  C    5.294070   4.008364   7.298463   6.159062   2.508921
    20  C    6.303539   4.972433   8.523389   7.034220   3.801497
    21  C    6.388024   5.100237   8.852976   6.915587   4.314135
    22  C    5.506894   4.331716   8.055269   5.900279   3.832722
    23  C    4.318038   3.182828   6.746738   4.827447   2.566485
    24  O    3.744892   2.947227   6.149901   4.032471   2.870114
    25  C    3.807157   3.233536   6.398442   3.691746   4.026289
    26  H    3.019577   2.028029   4.671394   4.080991   2.159130
    27  H    4.174964   3.319988   5.361510   5.255981   1.081839
    28  H    4.760907   4.308177   5.063657   5.843207   4.180354
    29  H    5.825362   5.592725   5.377401   6.928598   3.989161
    30  H    7.798245   7.280014   7.620096   8.960219   5.407196
    31  H    7.013651   6.309962   7.404069   8.124793   5.506233
    32  H    3.996808   4.285029   2.821143   5.006796   4.041360
    33  H    3.230092   2.757428   4.912502   3.851303   1.919130
    34  H    8.977773   8.180190   9.322087  10.131438   6.801321
    35  H    9.087829   8.280599   9.416787  10.260238   6.481347
    36  H    9.402357   8.780929   9.285950  10.579683   7.268449
    37  H    5.596931   4.381314   7.275477   6.585127   2.674180
    38  H    7.211800   5.873178   9.338908   7.983728   4.646483
    39  H    7.345826   6.068125   9.874479   7.798470   5.389693
    40  H    5.948799   4.896823   8.577272   6.146079   4.696492
    41  H    3.560989   2.879764   6.315346   3.435611   4.119318
    42  H    3.475260   3.298936   5.855070   3.134068   4.343626
    43  H    4.882369   4.294853   7.448479   4.687997   4.880971
                   16         17         18         19         20
    16  C    0.000000
    17  O    2.453790   0.000000
    18  C    6.919221   7.331830   0.000000
    19  C    1.388115   3.625294   6.193845   0.000000
    20  C    2.422793   4.807045   7.026807   1.384638   0.000000
    21  C    2.791037   5.087158   8.381859   2.386663   1.382226
    22  C    2.414669   4.335003   8.944748   2.752998   2.397469
    23  C    1.395657   2.986423   8.302209   2.387715   2.776314
    24  O    2.363938   2.721171   9.153048   3.620956   4.134610
    25  C    3.525062   3.908607  10.292873   4.682364   4.994670
    26  H    2.717412   3.334314   6.109718   3.121387   4.241340
    27  H    2.113553   1.984291   5.442169   2.560307   3.936221
    28  H    5.005313   5.192711   4.665414   4.984127   6.095833
    29  H    5.272174   4.040121   4.659802   5.551792   6.888602
    30  H    6.264769   5.831500   2.717105   5.985849   7.104974
    31  H    5.984996   6.645933   2.731623   5.398156   6.268825
    32  H    5.508471   4.111732   6.234596   6.141526   7.502259
    33  H    2.524993   0.946337   8.190699   3.856029   4.865187
    34  H    7.130562   7.835359   1.083474   6.280005   6.974779
    35  H    6.835624   7.319414   1.085185   6.029685   6.773782
    36  H    7.871527   8.069798   1.086170   7.220389   8.094100
    37  H    2.128944   3.881324   5.118167   1.077169   2.130061
    38  H    3.392106   5.717292   6.769195   2.137827   1.075044
    39  H    3.866576   6.137275   9.120095   3.366442   2.137621
    40  H    3.384414   5.005105  10.017831   3.826878   3.370625
    41  H    3.565901   4.312257  10.117820   4.583955   4.844583
    42  H    4.193544   3.958240  10.732891   5.466752   5.939200
    43  H    4.160631   4.732024  11.056500   5.181542   5.243755
                   21         22         23         24         25
    21  C    0.000000
    22  C    1.384315   0.000000
    23  C    2.402103   1.385976   0.000000
    24  O    3.651314   2.392191   1.358885   0.000000
    25  C    4.266644   2.934063   2.385756   1.414606   0.000000
    26  H    4.894421   4.661979   3.670666   4.112954   4.775409
    27  H    4.729827   4.511708   3.385455   3.862370   5.079552
    28  H    7.068393   7.103378   6.169541   6.641526   7.340133
    29  H    7.826229   7.644742   6.468671   6.657077   7.825175
    30  H    8.295482   8.511548   7.602624   8.156241   9.416703
    31  H    7.515258   7.964574   7.291921   8.092739   8.967552
    32  H    8.227819   7.786268   6.485060   6.365223   7.132813
    33  H    4.883270   3.918022   2.579879   1.951197   3.072392
    34  H    8.344828   9.015853   8.484124   9.421463  10.486466
    35  H    8.129170   8.754052   8.189187   9.091337  10.303734
    36  H    9.441744   9.963443   9.263243  10.048013  11.192608
    37  H    3.360622   3.830135   3.363478   4.487886   5.593865
    38  H    2.139728   3.375194   3.851325   5.209484   6.046806
    39  H    1.075581   2.130898   3.372791   4.519239   4.951929
    40  H    2.135658   1.074004   2.132449   2.632659   2.745380
    41  H    4.172217   3.007601   2.580757   2.061133   1.081428
    42  H    5.300992   3.966737   3.234329   2.009080   1.079075
    43  H    4.273604   2.925716   2.835349   2.065701   1.084011
                   26         27         28         29         30
    26  H    0.000000
    27  H    2.447442   0.000000
    28  H    2.599923   3.828927   0.000000
    29  H    4.663194   3.166913   4.254348   0.000000
    30  H    5.832705   4.348643   4.911484   2.452514   0.000000
    31  H    4.321002   4.810597   2.448602   4.911839   4.259609
    32  H    3.826896   3.814743   3.319348   2.800641   4.870063
    33  H    3.697953   2.764618   5.828655   4.974244   6.766247
    34  H    6.203925   5.882725   4.696765   5.514787   3.758135
    35  H    6.460331   5.451003   5.392638   4.826723   2.660572
    36  H    6.934736   6.258126   5.243382   4.961763   2.895127
    37  H    3.037924   2.299607   4.360281   4.913684   5.060830
    38  H    4.882477   4.596948   6.393265   7.323869   7.186565
    39  H    5.876250   5.783531   7.987373   8.851141   9.190004
    40  H    5.530177   5.460604   8.040347   8.558772   9.526743
    41  H    4.358096   5.165251   6.899867   7.982057   9.494305
    42  H    5.113016   5.411981   7.567226   7.860269   9.669631
    43  H    5.724626   5.889170   8.314734   8.704427  10.202961
                   31         32         33         34         35
    31  H    0.000000
    32  H    5.195409   0.000000
    33  H    7.377789   4.803852   0.000000
    34  H    2.400693   6.785563   8.642680   0.000000
    35  H    3.576019   6.757104   8.166687   1.754386   0.000000
    36  H    3.380755   6.546956   8.961460   1.753166   1.751292
    37  H    4.460314   5.738916   4.337635   5.215473   4.970309
    38  H    6.162610   8.113380   5.861671   6.606163   6.457626
    39  H    8.289900   9.288586   5.890330   9.010428   8.822342
    40  H    9.000053   8.583494   4.426952  10.087000   9.819179
    41  H    8.553731   7.080297   3.610116  10.212699  10.208817
    42  H    9.388971   6.940268   3.071211  10.990214  10.791757
    43  H    9.818860   8.172967   3.871164  11.232339  10.994465
                   36         37         38         39         40
    36  H    0.000000
    37  H    6.149632   0.000000
    38  H    7.851902   2.452449   0.000000
    39  H   10.194726   4.254840   2.472559   0.000000
    40  H   11.034203   4.903968   4.263649   2.453008   0.000000
    41  H   11.032581   5.465171   5.843573   4.829193   2.922344
    42  H   11.573476   6.291729   7.002603   6.019054   3.785718
    43  H   11.987687   6.176664   6.261684   4.765234   2.353385
                   41         42         43
    41  H    0.000000
    42  H    1.759175   0.000000
    43  H    1.776482   1.765875   0.000000
 Stoichiometry    C19H18ClNO4
 Framework group  C1[X(C19H18ClNO4)]
 Deg. of freedom   123
 Full point group                 C1      NOp   1
 Largest Abelian subgroup         C1      NOp   1
 Largest concise Abelian subgroup C1      NOp   1
                         Standard orientation:                         
 ---------------------------------------------------------------------
 Center     Atomic      Atomic             Coordinates (Angstroms)
 Number     Number       Type             X           Y           Z
 ---------------------------------------------------------------------
      1          6           0       -2.954453    0.274297   -1.123576
      2          6           0       -2.617581    0.786738    0.117387
      3          6           0       -3.271802    0.314580    1.248149
      4          6           0       -4.243585   -0.659855    1.130836
      5          6           0       -4.578105   -1.200329   -0.108697
      6          6           0       -3.915333   -0.720821   -1.228857
      7          7           0       -1.640641    1.811212    0.251420
      8          6           0       -0.354533    1.749883   -0.144436
      9          6           0        0.516831    2.754696   -0.265201
     10          6           0        0.380068    0.467685   -0.481861
     11          6           0        1.813238    2.237545   -0.681456
     12          8           0        1.666236    0.907553   -0.856250
     13         17           0        0.221130    4.420542    0.041478
     14          8           0        2.841224    2.791160   -0.866706
     15          6           0        0.480671   -0.513095    0.703479
     16          6           0        1.237078   -1.774197    0.302500
     17          8           0        0.975498    0.125551    1.833389
     18          6           0       -5.645005   -2.263694   -0.219943
     19          6           0        0.518871   -2.869112   -0.158154
     20          6           0        1.146841   -4.029804   -0.577285
     21          6           0        2.525710   -4.108620   -0.521991
     22          6           0        3.264641   -3.037065   -0.050738
     23          6           0        2.628163   -1.874437    0.354380
     24          8           0        3.330049   -0.823213    0.853231
     25          6           0        4.465061   -0.366818    0.142907
     26          1           0       -0.065382   -0.035731   -1.330186
     27          1           0       -0.531231   -0.810611    0.944131
     28          1           0       -2.477604    0.657991   -2.008075
     29          1           0       -3.004565    0.706405    2.213233
     30          1           0       -4.740421   -1.014998    2.017275
     31          1           0       -4.158539   -1.111975   -2.201288
     32          1           0       -1.959306    2.705049    0.552978
     33          1           0        1.920131    0.153179    1.783800
     34          1           0       -5.669344   -2.694812   -1.213654
     35          1           0       -5.472670   -3.066494    0.489591
     36          1           0       -6.627753   -1.849919   -0.013155
     37          1           0       -0.556099   -2.809515   -0.192512
     38          1           0        0.565263   -4.860997   -0.933102
     39          1           0        3.031652   -5.004917   -0.834320
     40          1           0        4.334713   -3.105881    0.010040
     41          1           0        4.262865   -0.336079   -0.919006
     42          1           0        4.664622    0.634496    0.492119
     43          1           0        5.324229   -0.996768    0.343089
 ---------------------------------------------------------------------
 Rotational constants (GHZ):      0.2328433      0.1774579      0.1100374
 Leave Link  202 at Sun Jul 07 10:13:23 2019, MaxMem=   209715200 cpu:         0.0
 (Enter C:\G09W\l301.exe)
 Standard basis: 6-311++G(d,p) (5D, 7F)
 Ernie: Thresh=  0.10000D-02 Tol=  0.10000D-05 Strict=F.
 There are   709 symmetry adapted cartesian basis functions of A   symmetry.
 There are   684 symmetry adapted basis functions of A   symmetry.
   684 basis functions,  1079 primitive gaussians,   709 cartesian basis functions
    94 alpha electrons       94 beta electrons
       nuclear repulsion energy      2370.0484441915 Hartrees.
 IExCor=  402 DFT=T Ex+Corr=B3LYP ExCW=0 ScaHFX=  0.200000
 ScaDFX=  0.800000  0.720000  1.000000  0.810000 ScalE2=  1.000000  1.000000
 IRadAn=      0 IRanWt=     -1 IRanGd=            0 ICorTp=0 IEmpDi=  4
 NAtoms=   43 NActive=   43 NUniq=   43 SFac= 1.00D+00 NAtFMM=   60 NAOKFM=F Big=F
 Integral buffers will be    262144 words long.
 Raffenetti 2 integral format.
 Two-electron integral symmetry is turned on.
 Leave Link  301 at Sun Jul 07 10:13:23 2019, MaxMem=   209715200 cpu:         0.0
 (Enter C:\G09W\l302.exe)
 NPDir=0 NMtPBC=     1 NCelOv=     1 NCel=       1 NClECP=     1 NCelD=      1
         NCelK=      1 NCelE2=     1 NClLst=     1 CellRange=     0.0.
 One-electron integrals computed using PRISM.
 NBasis=   684 RedAO= T EigKep=  1.25D-06  NBF=   684
 NBsUse=   679 1.00D-06 EigRej=  7.46D-07 NBFU=   679
 Precomputing XC quadrature grid using
 IXCGrd= 4 IRadAn=           0 IRanWt=          -1 IRanGd=           0 AccXCQ= 0.00D+00.
 Generated NRdTot=       0 NPtTot=           0 NUsed=           0 NTot=          16
 NSgBfM=   692   699   699   703   703 MxSgAt=    43 MxSgA2=    43.
 Leave Link  302 at Sun Jul 07 10:13:25 2019, MaxMem=   209715200 cpu:         2.0
 (Enter C:\G09W\l303.exe)
 DipDrv:  MaxL=1.
 Leave Link  303 at Sun Jul 07 10:13:26 2019, MaxMem=   209715200 cpu:         0.0
 (Enter C:\G09W\l401.exe)
 ExpMin= 3.60D-02 ExpMax= 1.06D+05 ExpMxC= 3.62D+03 IAcc=3 IRadAn=         5 AccDes= 0.00D+00
 Harris functional with IExCor=  402 and IRadAn=       5 diagonalized for initial guess.
 HarFok:  IExCor=  402 AccDes= 0.00D+00 IRadAn=         5 IDoV= 1 UseB2=F ITyADJ=14
 ICtDFT=  3500011 ScaDFX=  1.000000  1.000000  1.000000  1.000000
 FoFCou: FMM=F IPFlag=           0 FMFlag=      100000 FMFlg1=           0
         NFxFlg=           0 DoJE=T BraDBF=F KetDBF=T FulRan=T
         wScrn=  0.000000 ICntrl=     500 IOpCl=  0 I1Cent=   200000004 NGrid=           0
         NMat0=    1 NMatS0=      1 NMatT0=    0 NMatD0=    1 NMtDS0=    0 NMtDT0=    0
 Petite list used in FoFCou.
 Harris En= -1551.01078029301    
 JPrj=0 DoOrth=F DoCkMO=F.
 Leave Link  401 at Sun Jul 07 10:14:04 2019, MaxMem=   209715200 cpu:        38.0
 (Enter C:\G09W\l502.exe)
 Closed shell SCF:
 Using DIIS extrapolation, IDIIS=  1040.
 Integral symmetry usage will be decided dynamically.
 IVT=     1535144 IEndB=     1535144 NGot=   209715200 MDV=   208700087
 LenX=   208700087 LenY=   208196697
 Requested convergence on RMS density matrix=1.00D-08 within 128 cycles.
 Requested convergence on MAX density matrix=1.00D-06.
 Requested convergence on             energy=1.00D-06.
 No special actions if energy rises.
 Fock matrices will be formed incrementally for  20 cycles.

 Cycle   1  Pass 1  IDiag  1:
 FoFJK:  IHMeth= 1 ICntrl=       0 DoSepK=F KAlg= 0 I1Cent=   0 FoldK=F
 IRaf= 790000000 NMat=   1 IRICut=       1 DoRegI=T DoRafI=F ISym2E= 0.
 FoFCou: FMM=F IPFlag=           0 FMFlag=      100000 FMFlg1=           0
         NFxFlg=           0 DoJE=F BraDBF=F KetDBF=F FulRan=T
         wScrn=  0.000000 ICntrl=       0 IOpCl=  0 I1Cent=           0 NGrid=           0
         NMat0=    1 NMatS0=      1 NMatT0=    0 NMatD0=    1 NMtDS0=    0 NMtDT0=    0
 Symmetry not used in FoFCou.
 E= -1550.40559022663    
 DIIS: error= 1.67D-02 at cycle   1 NSaved=   1.
 NSaved= 1 IEnMin= 1 EnMin= -1550.40559022663     IErMin= 1 ErrMin= 1.67D-02
 ErrMax= 1.67D-02  0.00D+00 EMaxC= 1.00D-01 BMatC= 7.48D-01 BMatP= 7.48D-01
 IDIUse=3 WtCom= 8.33D-01 WtEn= 1.67D-01
 Coeff-Com:  0.100D+01
 Coeff-En:   0.100D+01
 Coeff:      0.100D+01
 Gap=     0.339 Goal=   None    Shift=    0.000
 GapD=    0.339 DampG=1.000 DampE=0.500 DampFc=0.5000 IDamp=-1.
 Damping current iteration by 5.00D-01
 RMSDP=2.18D-02 MaxDP=2.96D+00              OVMax= 2.36D-01

 Cycle   2  Pass 1  IDiag  1:
 RMSU=  1.09D-02    CP:  1.00D+00
 E= -1550.63570045977     Delta-E=       -0.230110233147 Rises=F Damp=T
 DIIS: error= 6.26D-03 at cycle   2 NSaved=   2.
 NSaved= 2 IEnMin= 2 EnMin= -1550.63570045977     IErMin= 2 ErrMin= 6.26D-03
 ErrMax= 6.26D-03  0.00D+00 EMaxC= 1.00D-01 BMatC= 7.20D-02 BMatP= 7.48D-01
 IDIUse=3 WtCom= 9.37D-01 WtEn= 6.26D-02
 Coeff-Com:  0.104D+00 0.896D+00
 Coeff-En:   0.216D+00 0.784D+00
 Coeff:      0.111D+00 0.889D+00
 Gap=     0.310 Goal=   None    Shift=    0.000
 RMSDP=7.49D-03 MaxDP=7.26D-01 DE=-2.30D-01 OVMax= 1.60D-01

 Cycle   3  Pass 1  IDiag  1:
 RMSU=  5.39D-03    CP:  9.65D-01  5.40D-01
 E= -1550.94254016797     Delta-E=       -0.306839708198 Rises=F Damp=F
 DIIS: error= 9.35D-03 at cycle   3 NSaved=   3.
 NSaved= 3 IEnMin= 3 EnMin= -1550.94254016797     IErMin= 2 ErrMin= 6.26D-03
 ErrMax= 9.35D-03  0.00D+00 EMaxC= 1.00D-01 BMatC= 9.20D-02 BMatP= 7.20D-02
 IDIUse=3 WtCom= 9.37D-02 WtEn= 9.06D-01
 Coeff-Com: -0.201D-01 0.540D+00 0.480D+00
 Coeff-En:   0.000D+00 0.000D+00 0.100D+01
 Coeff:     -0.188D-02 0.506D-01 0.951D+00
 Gap=     0.212 Goal=   None    Shift=    0.000
 RMSDP=8.34D-03 MaxDP=6.66D-01 DE=-3.07D-01 OVMax= 2.77D-01

 Cycle   4  Pass 1  IDiag  1:
 RMSU=  6.30D-03    CP:  1.00D+00  9.36D-01  4.37D-01
 E= -1550.64988172495     Delta-E=        0.292658443025 Rises=F Damp=F
 DIIS: error= 1.94D-02 at cycle   4 NSaved=   4.
 NSaved= 4 IEnMin= 3 EnMin= -1550.94254016797     IErMin= 2 ErrMin= 6.26D-03
 ErrMax= 1.94D-02  0.00D+00 EMaxC= 1.00D-01 BMatC= 4.51D-01 BMatP= 7.20D-02
 IDIUse=2 WtCom= 0.00D+00 WtEn= 1.00D+00
 Coeff-En:   0.000D+00 0.000D+00 0.777D+00 0.223D+00
 Coeff:      0.000D+00 0.000D+00 0.777D+00 0.223D+00
 Gap=     0.208 Goal=   None    Shift=    0.000
 RMSDP=4.92D-03 MaxDP=4.80D-01 DE= 2.93D-01 OVMax= 1.05D-01

 Cycle   5  Pass 1  IDiag  1:
 RMSU=  1.19D-03    CP:  9.48D-01  7.47D-01  6.47D-01  4.34D-01
 E= -1550.98961944791     Delta-E=       -0.339737722962 Rises=F Damp=F
 DIIS: error= 4.95D-03 at cycle   5 NSaved=   5.
 NSaved= 5 IEnMin= 5 EnMin= -1550.98961944791     IErMin= 5 ErrMin= 4.95D-03
 ErrMax= 4.95D-03  0.00D+00 EMaxC= 1.00D-01 BMatC= 3.18D-02 BMatP= 7.20D-02
 IDIUse=3 WtCom= 9.50D-01 WtEn= 4.95D-02
 Coeff-Com:  0.805D-02 0.104D-04 0.339D+00-0.235D-01 0.676D+00
 Coeff-En:   0.000D+00 0.000D+00 0.308D+00 0.000D+00 0.692D+00
 Coeff:      0.765D-02 0.992D-05 0.338D+00-0.223D-01 0.677D+00
 Gap=     0.184 Goal=   None    Shift=    0.000
 RMSDP=1.64D-03 MaxDP=1.16D-01 DE=-3.40D-01 OVMax= 3.23D-02

 Cycle   6  Pass 1  IDiag  1:
 RMSU=  5.91D-04    CP:  9.42D-01  6.84D-01  8.21D-01  2.86D-01  7.93D-01
 E= -1551.01400366536     Delta-E=       -0.024384217455 Rises=F Damp=F
 DIIS: error= 6.37D-04 at cycle   6 NSaved=   6.
 NSaved= 6 IEnMin= 6 EnMin= -1551.01400366536     IErMin= 6 ErrMin= 6.37D-04
 ErrMax= 6.37D-04  0.00D+00 EMaxC= 1.00D-01 BMatC= 5.36D-04 BMatP= 3.18D-02
 IDIUse=3 WtCom= 9.94D-01 WtEn= 6.37D-03
 Coeff-Com:  0.408D-02-0.599D-02 0.153D+00-0.442D-01 0.439D+00 0.454D+00
 Coeff-En:   0.000D+00 0.000D+00 0.000D+00 0.000D+00 0.000D+00 0.100D+01
 Coeff:      0.405D-02-0.595D-02 0.152D+00-0.439D-01 0.436D+00 0.457D+00
 Gap=     0.183 Goal=   None    Shift=    0.000
 RMSDP=3.23D-04 MaxDP=4.92D-02 DE=-2.44D-02 OVMax= 6.41D-03

 Cycle   7  Pass 1  IDiag  1:
 RMSU=  1.07D-04    CP:  9.43D-01  6.83D-01  7.93D-01  2.97D-01  8.20D-01
                    CP:  5.74D-01
 E= -1551.01445054848     Delta-E=       -0.000446883115 Rises=F Damp=F
 DIIS: error= 2.06D-04 at cycle   7 NSaved=   7.
 NSaved= 7 IEnMin= 7 EnMin= -1551.01445054848     IErMin= 7 ErrMin= 2.06D-04
 ErrMax= 2.06D-04  0.00D+00 EMaxC= 1.00D-01 BMatC= 2.47D-05 BMatP= 5.36D-04
 IDIUse=3 WtCom= 9.98D-01 WtEn= 2.06D-03
 Coeff-Com:  0.193D-02-0.328D-02 0.647D-01-0.239D-01 0.197D+00 0.224D+00
 Coeff-Com:  0.540D+00
 Coeff-En:   0.000D+00 0.000D+00 0.000D+00 0.000D+00 0.000D+00 0.000D+00
 Coeff-En:   0.100D+01
 Coeff:      0.193D-02-0.328D-02 0.646D-01-0.238D-01 0.196D+00 0.223D+00
 Coeff:      0.541D+00
 Gap=     0.183 Goal=   None    Shift=    0.000
 RMSDP=6.99D-05 MaxDP=7.78D-03 DE=-4.47D-04 OVMax= 1.84D-03

 Cycle   8  Pass 1  IDiag  1:
 RMSU=  3.33D-05    CP:  9.44D-01  6.81D-01  7.96D-01  2.90D-01  8.20D-01
                    CP:  5.71D-01  6.99D-01
 E= -1551.01447099873     Delta-E=       -0.000020450250 Rises=F Damp=F
 DIIS: error= 6.02D-05 at cycle   8 NSaved=   8.
 NSaved= 8 IEnMin= 8 EnMin= -1551.01447099873     IErMin= 8 ErrMin= 6.02D-05
 ErrMax= 6.02D-05  0.00D+00 EMaxC= 1.00D-01 BMatC= 4.89D-06 BMatP= 2.47D-05
 IDIUse=1 WtCom= 1.00D+00 WtEn= 0.00D+00
 Coeff-Com:  0.609D-03-0.119D-02 0.128D-01-0.580D-02 0.357D-01 0.389D-01
 Coeff-Com:  0.330D+00 0.589D+00
 Coeff:      0.609D-03-0.119D-02 0.128D-01-0.580D-02 0.357D-01 0.389D-01
 Coeff:      0.330D+00 0.589D+00
 Gap=     0.183 Goal=   None    Shift=    0.000
 RMSDP=2.97D-05 MaxDP=4.26D-03 DE=-2.05D-05 OVMax= 6.35D-04

 Cycle   9  Pass 1  IDiag  1:
 RMSU=  1.87D-05    CP:  9.43D-01  6.80D-01  7.94D-01  2.89D-01  8.22D-01
                    CP:  5.71D-01  7.44D-01  7.36D-01
 E= -1551.01447501816     Delta-E=       -0.000004019430 Rises=F Damp=F
 DIIS: error= 1.31D-05 at cycle   9 NSaved=   9.
 NSaved= 9 IEnMin= 9 EnMin= -1551.01447501816     IErMin= 9 ErrMin= 1.31D-05
 ErrMax= 1.31D-05  0.00D+00 EMaxC= 1.00D-01 BMatC= 2.02D-07 BMatP= 4.89D-06
 IDIUse=1 WtCom= 1.00D+00 WtEn= 0.00D+00
 Coeff-Com:  0.231D-03-0.495D-03 0.290D-02-0.151D-02 0.627D-02 0.577D-02
 Coeff-Com:  0.143D+00 0.310D+00 0.534D+00
 Coeff:      0.231D-03-0.495D-03 0.290D-02-0.151D-02 0.627D-02 0.577D-02
 Coeff:      0.143D+00 0.310D+00 0.534D+00
 Gap=     0.183 Goal=   None    Shift=    0.000
 RMSDP=7.89D-06 MaxDP=8.71D-04 DE=-4.02D-06 OVMax= 1.38D-04

 Cycle  10  Pass 1  IDiag  1:
 RMSU=  4.75D-06    CP:  9.43D-01  6.80D-01  7.94D-01  2.89D-01  8.22D-01
                    CP:  5.67D-01  7.50D-01  7.72D-01  7.46D-01
 E= -1551.01447519905     Delta-E=       -0.000000180894 Rises=F Damp=F
 DIIS: error= 3.63D-06 at cycle  10 NSaved=  10.
 NSaved=10 IEnMin=10 EnMin= -1551.01447519905     IErMin=10 ErrMin= 3.63D-06
 ErrMax= 3.63D-06  0.00D+00 EMaxC= 1.00D-01 BMatC= 1.86D-08 BMatP= 2.02D-07
 IDIUse=1 WtCom= 1.00D+00 WtEn= 0.00D+00
 Coeff-Com:  0.578D-04-0.150D-03 0.180D-03-0.128D-03-0.407D-03-0.576D-03
 Coeff-Com:  0.339D-01 0.857D-01 0.280D+00 0.602D+00
 Coeff:      0.578D-04-0.150D-03 0.180D-03-0.128D-03-0.407D-03-0.576D-03
 Coeff:      0.339D-01 0.857D-01 0.280D+00 0.602D+00
 Gap=     0.183 Goal=   None    Shift=    0.000
 RMSDP=3.51D-06 MaxDP=5.07D-04 DE=-1.81D-07 OVMax= 5.97D-05

 Cycle  11  Pass 1  IDiag  1:
 RMSU=  1.26D-06    CP:  9.43D-01  6.80D-01  7.94D-01  2.89D-01  8.21D-01
                    CP:  5.68D-01  7.58D-01  7.56D-01  7.25D-01  7.41D-01
 E= -1551.01447521470     Delta-E=       -0.000000015646 Rises=F Damp=F
 DIIS: error= 1.19D-06 at cycle  11 NSaved=  11.
 NSaved=11 IEnMin=11 EnMin= -1551.01447521470     IErMin=11 ErrMin= 1.19D-06
 ErrMax= 1.19D-06  0.00D+00 EMaxC= 1.00D-01 BMatC= 3.47D-09 BMatP= 1.86D-08
 IDIUse=1 WtCom= 1.00D+00 WtEn= 0.00D+00
 Coeff-Com:  0.139D-04-0.498D-04-0.105D-03 0.385D-04-0.582D-03-0.445D-03
 Coeff-Com:  0.701D-02 0.215D-01 0.115D+00 0.363D+00 0.495D+00
 Coeff:      0.139D-04-0.498D-04-0.105D-03 0.385D-04-0.582D-03-0.445D-03
 Coeff:      0.701D-02 0.215D-01 0.115D+00 0.363D+00 0.495D+00
 Gap=     0.183 Goal=   None    Shift=    0.000
 RMSDP=8.40D-07 MaxDP=1.34D-04 DE=-1.56D-08 OVMax= 1.99D-05

 Cycle  12  Pass 1  IDiag  1:
 RMSU=  3.25D-07    CP:  9.43D-01  6.80D-01  7.94D-01  2.89D-01  8.21D-01
                    CP:  5.68D-01  7.57D-01  7.60D-01  7.34D-01  7.82D-01
                    CP:  7.32D-01
 E= -1551.01447521777     Delta-E=       -0.000000003070 Rises=F Damp=F
 DIIS: error= 2.89D-07 at cycle  12 NSaved=  12.
 NSaved=12 IEnMin=12 EnMin= -1551.01447521777     IErMin=12 ErrMin= 2.89D-07
 ErrMax= 2.89D-07  0.00D+00 EMaxC= 1.00D-01 BMatC= 1.87D-10 BMatP= 3.47D-09
 IDIUse=1 WtCom= 1.00D+00 WtEn= 0.00D+00
 Coeff-Com: -0.631D-06-0.481D-05-0.114D-03 0.456D-04-0.364D-03-0.223D-03
 Coeff-Com: -0.684D-04 0.263D-02 0.297D-01 0.120D+00 0.229D+00 0.620D+00
 Coeff:     -0.631D-06-0.481D-05-0.114D-03 0.456D-04-0.364D-03-0.223D-03
 Coeff:     -0.684D-04 0.263D-02 0.297D-01 0.120D+00 0.229D+00 0.620D+00
 Gap=     0.183 Goal=   None    Shift=    0.000
 RMSDP=3.19D-07 MaxDP=4.11D-05 DE=-3.07D-09 OVMax= 5.07D-06

 Cycle  13  Pass 1  IDiag  1:
 RMSU=  1.61D-07    CP:  9.43D-01  6.80D-01  7.94D-01  2.89D-01  8.21D-01
                    CP:  5.68D-01  7.56D-01  7.61D-01  7.43D-01  7.91D-01
                    CP:  7.20D-01  8.89D-01
 E= -1551.01447521798     Delta-E=       -0.000000000209 Rises=F Damp=F
 DIIS: error= 2.74D-07 at cycle  13 NSaved=  13.
 NSaved=13 IEnMin=13 EnMin= -1551.01447521798     IErMin=13 ErrMin= 2.74D-07
 ErrMax= 2.74D-07  0.00D+00 EMaxC= 1.00D-01 BMatC= 3.57D-11 BMatP= 1.87D-10
 IDIUse=1 WtCom= 1.00D+00 WtEn= 0.00D+00
 Coeff-Com: -0.169D-05 0.221D-05-0.547D-04 0.200D-04-0.144D-03-0.516D-04
 Coeff-Com: -0.522D-03-0.720D-04 0.663D-02 0.359D-01 0.848D-01 0.364D+00
 Coeff-Com:  0.509D+00
 Coeff:     -0.169D-05 0.221D-05-0.547D-04 0.200D-04-0.144D-03-0.516D-04
 Coeff:     -0.522D-03-0.720D-04 0.663D-02 0.359D-01 0.848D-01 0.364D+00
 Coeff:      0.509D+00
 Gap=     0.183 Goal=   None    Shift=    0.000
 RMSDP=6.77D-08 MaxDP=4.28D-06 DE=-2.09D-10 OVMax= 1.81D-06

 Cycle  14  Pass 1  IDiag  1:
 RMSU=  4.18D-08    CP:  9.43D-01  6.80D-01  7.94D-01  2.89D-01  8.21D-01
                    CP:  5.68D-01  7.56D-01  7.61D-01  7.44D-01  7.89D-01
                    CP:  7.24D-01  9.13D-01  7.59D-01
 E= -1551.01447521805     Delta-E=       -0.000000000070 Rises=F Damp=F
 DIIS: error= 1.35D-07 at cycle  14 NSaved=  14.
 NSaved=14 IEnMin=14 EnMin= -1551.01447521805     IErMin=14 ErrMin= 1.35D-07
 ErrMax= 1.35D-07  0.00D+00 EMaxC= 1.00D-01 BMatC= 6.05D-12 BMatP= 3.57D-11
 IDIUse=1 WtCom= 1.00D+00 WtEn= 0.00D+00
 Coeff-Com: -0.108D-05 0.227D-05-0.172D-04 0.565D-05-0.340D-04 0.364D-05
 Coeff-Com: -0.304D-03-0.422D-03-0.106D-02 0.114D-02 0.106D-01 0.108D+00
 Coeff-Com:  0.322D+00 0.560D+00
 Coeff:     -0.108D-05 0.227D-05-0.172D-04 0.565D-05-0.340D-04 0.364D-05
 Coeff:     -0.304D-03-0.422D-03-0.106D-02 0.114D-02 0.106D-01 0.108D+00
 Coeff:      0.322D+00 0.560D+00
 Gap=     0.183 Goal=   None    Shift=    0.000
 RMSDP=6.21D-08 MaxDP=1.00D-05 DE=-7.00D-11 OVMax= 9.18D-07

 Cycle  15  Pass 1  IDiag  1:
 RMSU=  1.68D-08    CP:  9.43D-01  6.80D-01  7.94D-01  2.89D-01  8.21D-01
                    CP:  5.68D-01  7.56D-01  7.61D-01  7.43D-01  7.89D-01
                    CP:  7.33D-01  9.14D-01  7.38D-01  7.13D-01
 E= -1551.01447521772     Delta-E=        0.000000000325 Rises=F Damp=F
 DIIS: error= 2.36D-08 at cycle  15 NSaved=  15.
 NSaved=15 IEnMin=14 EnMin= -1551.01447521805     IErMin=15 ErrMin= 2.36D-08
 ErrMax= 2.36D-08  0.00D+00 EMaxC= 1.00D-01 BMatC= 5.20D-13 BMatP= 6.05D-12
 IDIUse=1 WtCom= 1.00D+00 WtEn= 0.00D+00
 Coeff-Com: -0.456D-06 0.104D-05-0.375D-05 0.111D-05-0.342D-05 0.868D-05
 Coeff-Com: -0.112D-03-0.234D-03-0.149D-02-0.376D-02-0.422D-02 0.182D-01
 Coeff-Com:  0.123D+00 0.307D+00 0.561D+00
 Coeff:     -0.456D-06 0.104D-05-0.375D-05 0.111D-05-0.342D-05 0.868D-05
 Coeff:     -0.112D-03-0.234D-03-0.149D-02-0.376D-02-0.422D-02 0.182D-01
 Coeff:      0.123D+00 0.307D+00 0.561D+00
 Gap=     0.183 Goal=   None    Shift=    0.000
 RMSDP=1.07D-08 MaxDP=1.56D-06 DE= 3.25D-10 OVMax= 1.82D-07

 Cycle  16  Pass 1  IDiag  1:
 RMSU=  5.61D-09    CP:  9.43D-01  6.80D-01  7.94D-01  2.89D-01  8.21D-01
                    CP:  5.68D-01  7.56D-01  7.61D-01  7.43D-01  7.90D-01
                    CP:  7.33D-01  9.20D-01  7.50D-01  7.51D-01  7.43D-01
 E= -1551.01447521787     Delta-E=       -0.000000000143 Rises=F Damp=F
 DIIS: error= 6.05D-09 at cycle  16 NSaved=  16.
 NSaved=16 IEnMin=14 EnMin= -1551.01447521805     IErMin=16 ErrMin= 6.05D-09
 ErrMax= 6.05D-09  0.00D+00 EMaxC= 1.00D-01 BMatC= 5.63D-14 BMatP= 5.20D-13
 IDIUse=1 WtCom= 1.00D+00 WtEn= 0.00D+00
 Coeff-Com: -0.122D-06 0.295D-06-0.258D-06 0.567D-07 0.134D-05 0.438D-05
 Coeff-Com: -0.239D-04-0.709D-04-0.648D-03-0.201D-02-0.322D-02-0.207D-02
 Coeff-Com:  0.321D-01 0.104D+00 0.312D+00 0.560D+00
 Coeff:     -0.122D-06 0.295D-06-0.258D-06 0.567D-07 0.134D-05 0.438D-05
 Coeff:     -0.239D-04-0.709D-04-0.648D-03-0.201D-02-0.322D-02-0.207D-02
 Coeff:      0.321D-01 0.104D+00 0.312D+00 0.560D+00
 Gap=     0.183 Goal=   None    Shift=    0.000
 RMSDP=5.36D-09 MaxDP=5.38D-07 DE=-1.43D-10 OVMax= 7.66D-08

 SCF Done:  E(RB3LYP) =  -1551.01447522     A.U. after   16 cycles
            NFock= 16  Conv=0.54D-08     -V/T= 2.0029
 KE= 1.546467341361D+03 PE=-8.378219934657D+03 EE= 2.910689673887D+03
 Leave Link  502 at Sun Jul 07 10:45:25 2019, MaxMem=   209715200 cpu:      1881.0
 (Enter C:\G09W\l601.exe)
 Copying SCF densities to generalized density rwf, IOpCl= 0 IROHF=0.

 **********************************************************************

            Population analysis using the SCF density.

 **********************************************************************

 Orbital symmetries:
       Occupied  (A) (A) (A) (A) (A) (A) (A) (A) (A) (A) (A) (A)
                 (A) (A) (A) (A) (A) (A) (A) (A) (A) (A) (A) (A)
                 (A) (A) (A) (A) (A) (A) (A) (A) (A) (A) (A) (A)
                 (A) (A) (A) (A) (A) (A) (A) (A) (A) (A) (A) (A)
                 (A) (A) (A) (A) (A) (A) (A) (A) (A) (A) (A) (A)
                 (A) (A) (A) (A) (A) (A) (A) (A) (A) (A) (A) (A)
                 (A) (A) (A) (A) (A) (A) (A) (A) (A) (A) (A) (A)
                 (A) (A) (A) (A) (A) (A) (A) (A) (A) (A)
       Virtual   (A) (A) (A) (A) (A) (A) (A) (A) (A) (A) (A) (A)
                 (A) (A) (A) (A) (A) (A) (A) (A) (A) (A) (A) (A)
                 (A) (A) (A) (A) (A) (A) (A) (A) (A) (A) (A) (A)
                 (A) (A) (A) (A) (A) (A) (A) (A) (A) (A) (A) (A)
                 (A) (A) (A) (A) (A) (A) (A) (A) (A) (A) (A) (A)
                 (A) (A) (A) (A) (A) (A) (A) (A) (A) (A) (A) (A)
                 (A) (A) (A) (A) (A) (A) (A) (A) (A) (A) (A) (A)
                 (A) (A) (A) (A) (A) (A) (A) (A) (A) (A) (A) (A)
                 (A) (A) (A) (A) (A) (A) (A) (A) (A) (A) (A) (A)
                 (A) (A) (A) (A) (A) (A) (A) (A) (A) (A) (A) (A)
                 (A) (A) (A) (A) (A) (A) (A) (A) (A) (A) (A) (A)
                 (A) (A) (A) (A) (A) (A) (A) (A) (A) (A) (A) (A)
                 (A) (A) (A) (A) (A) (A) (A) (A) (A) (A) (A) (A)
                 (A) (A) (A) (A) (A) (A) (A) (A) (A) (A) (A) (A)
                 (A) (A) (A) (A) (A) (A) (A) (A) (A) (A) (A) (A)
                 (A) (A) (A) (A) (A) (A) (A) (A) (A) (A) (A) (A)
                 (A) (A) (A) (A) (A) (A) (A) (A) (A) (A) (A) (A)
                 (A) (A) (A) (A) (A) (A) (A) (A) (A) (A) (A) (A)
                 (A) (A) (A) (A) (A) (A) (A) (A) (A) (A) (A) (A)
                 (A) (A) (A) (A) (A) (A) (A) (A) (A) (A) (A) (A)
                 (A) (A) (A) (A) (A) (A) (A) (A) (A) (A) (A) (A)
                 (A) (A) (A) (A) (A) (A) (A) (A) (A) (A) (A) (A)
                 (A) (A) (A) (A) (A) (A) (A) (A) (A) (A) (A) (A)
                 (A) (A) (A) (A) (A) (A) (A) (A) (A) (A) (A) (A)
                 (A) (A) (A) (A) (A) (A) (A) (A) (A) (A) (A) (A)
                 (A) (A) (A) (A) (A) (A) (A) (A) (A) (A) (A) (A)
                 (A) (A) (A) (A) (A) (A) (A) (A) (A) (A) (A) (A)
                 (A) (A) (A) (A) (A) (A) (A) (A) (A) (A) (A) (A)
                 (A) (A) (A) (A) (A) (A) (A) (A) (A) (A) (A) (A)
                 (A) (A) (A) (A) (A) (A) (A) (A) (A) (A) (A) (A)
                 (A) (A) (A) (A) (A) (A) (A) (A) (A) (A) (A) (A)
                 (A) (A) (A) (A) (A) (A) (A) (A) (A) (A) (A) (A)
                 (A) (A) (A) (A) (A) (A) (A) (A) (A) (A) (A) (A)
                 (A) (A) (A) (A) (A) (A) (A) (A) (A) (A) (A) (A)
                 (A) (A) (A) (A) (A) (A) (A) (A) (A) (A) (A) (A)
                 (A) (A) (A) (A) (A) (A) (A) (A) (A) (A) (A) (A)
                 (A) (A) (A) (A) (A) (A) (A) (A) (A) (A) (A) (A)
                 (A) (A) (A) (A) (A) (A) (A) (A) (A) (A) (A) (A)
                 (A) (A) (A) (A) (A) (A) (A) (A) (A) (A) (A) (A)
                 (A) (A) (A) (A) (A) (A) (A) (A) (A) (A) (A) (A)
                 (A) (A) (A) (A) (A) (A) (A) (A) (A) (A) (A) (A)
                 (A) (A) (A) (A) (A) (A) (A) (A) (A) (A) (A) (A)
                 (A) (A) (A) (A) (A) (A) (A) (A) (A) (A) (A) (A)
                 (A) (A) (A) (A) (A) (A) (A) (A) (A) (A) (A) (A)
                 (A) (A) (A) (A) (A) (A) (A) (A) (A) (A) (A) (A)
                 (A) (A) (A) (A) (A) (A) (A) (A) (A) (A) (A) (A)
                 (A) (A) (A) (A) (A) (A) (A) (A) (A) (A) (A) (A)
                 (A) (A) (A) (A) (A) (A) (A) (A) (A) (A) (A) (A)
                 (A) (A) (A) (A) (A) (A) (A) (A) (A)
 The electronic state is 1-A.
 Alpha  occ. eigenvalues -- -101.56206 -19.16599 -19.15601 -19.12103 -19.09878
 Alpha  occ. eigenvalues --  -14.36659 -10.29383 -10.25606 -10.24776 -10.24429
 Alpha  occ. eigenvalues --  -10.24174 -10.23667 -10.22139 -10.21750 -10.20492
 Alpha  occ. eigenvalues --  -10.19787 -10.19600 -10.19465 -10.19381 -10.19071
 Alpha  occ. eigenvalues --  -10.18453 -10.18361 -10.18351 -10.18039 -10.17823
 Alpha  occ. eigenvalues --   -9.47644  -7.24113  -7.23108  -7.23106  -1.12543
 Alpha  occ. eigenvalues --   -1.08148  -1.04657  -1.03384  -0.98803  -0.89371
 Alpha  occ. eigenvalues --   -0.87710  -0.87443  -0.81225  -0.79762  -0.77919
 Alpha  occ. eigenvalues --   -0.77645  -0.76726  -0.75129  -0.71201  -0.70690
 Alpha  occ. eigenvalues --   -0.67034  -0.64553  -0.63327  -0.62835  -0.61220
 Alpha  occ. eigenvalues --   -0.60469  -0.58815  -0.55169  -0.54624  -0.53887
 Alpha  occ. eigenvalues --   -0.52650  -0.52192  -0.50381  -0.50008  -0.49569
 Alpha  occ. eigenvalues --   -0.48856  -0.47962  -0.46916  -0.46087  -0.45843
 Alpha  occ. eigenvalues --   -0.45016  -0.44482  -0.44352  -0.43822  -0.42847
 Alpha  occ. eigenvalues --   -0.42648  -0.41756  -0.41434  -0.39474  -0.39334
 Alpha  occ. eigenvalues --   -0.38969  -0.38541  -0.38213  -0.37917  -0.37003
 Alpha  occ. eigenvalues --   -0.36920  -0.36282  -0.34267  -0.33694  -0.32467
 Alpha  occ. eigenvalues --   -0.31974  -0.30477  -0.28490  -0.28294  -0.27962
 Alpha  occ. eigenvalues --   -0.27435  -0.26507  -0.24262  -0.22820
 Alpha virt. eigenvalues --   -0.04510  -0.04037  -0.02861  -0.02020  -0.01778
 Alpha virt. eigenvalues --   -0.01385  -0.00597  -0.00498  -0.00099   0.00622
 Alpha virt. eigenvalues --    0.00850   0.01655   0.02170   0.02448   0.02581
 Alpha virt. eigenvalues --    0.03059   0.03079   0.03602   0.04267   0.04495
 Alpha virt. eigenvalues --    0.04898   0.05286   0.05809   0.06063   0.06679
 Alpha virt. eigenvalues --    0.07031   0.07198   0.07662   0.07707   0.08245
 Alpha virt. eigenvalues --    0.08355   0.08583   0.08779   0.09070   0.09301
 Alpha virt. eigenvalues --    0.09604   0.09776   0.10039   0.10550   0.10582
 Alpha virt. eigenvalues --    0.10718   0.10927   0.11133   0.11345   0.11566
 Alpha virt. eigenvalues --    0.11812   0.12007   0.12226   0.12289   0.12726
 Alpha virt. eigenvalues --    0.12811   0.13254   0.13357   0.13564   0.13955
 Alpha virt. eigenvalues --    0.14156   0.14265   0.14506   0.14585   0.15117
 Alpha virt. eigenvalues --    0.15267   0.15593   0.15847   0.15879   0.16285
 Alpha virt. eigenvalues --    0.16514   0.16582   0.16799   0.17016   0.17175
 Alpha virt. eigenvalues --    0.17459   0.17682   0.17907   0.18174   0.18344
 Alpha virt. eigenvalues --    0.19096   0.19272   0.19506   0.19780   0.20026
 Alpha virt. eigenvalues --    0.20218   0.20415   0.20791   0.21170   0.21325
 Alpha virt. eigenvalues --    0.21334   0.21971   0.22332   0.22466   0.22783
 Alpha virt. eigenvalues --    0.23122   0.23327   0.23634   0.23881   0.24183
 Alpha virt. eigenvalues --    0.24229   0.24577   0.24870   0.25052   0.25534
 Alpha virt. eigenvalues --    0.26056   0.26206   0.26434   0.26669   0.26782
 Alpha virt. eigenvalues --    0.27210   0.27234   0.27699   0.27904   0.28404
 Alpha virt. eigenvalues --    0.28449   0.28779   0.29213   0.29644   0.29816
 Alpha virt. eigenvalues --    0.29977   0.30095   0.30309   0.30557   0.30948
 Alpha virt. eigenvalues --    0.31310   0.31353   0.31641   0.32020   0.32276
 Alpha virt. eigenvalues --    0.32343   0.32720   0.33164   0.33420   0.33906
 Alpha virt. eigenvalues --    0.34290   0.34559   0.34809   0.35481   0.35623
 Alpha virt. eigenvalues --    0.35807   0.36237   0.36577   0.36979   0.37437
 Alpha virt. eigenvalues --    0.37621   0.37874   0.38155   0.38690   0.39138
 Alpha virt. eigenvalues --    0.39508   0.40490   0.40694   0.41089   0.41544
 Alpha virt. eigenvalues --    0.41976   0.42667   0.43034   0.43709   0.45257
 Alpha virt. eigenvalues --    0.45331   0.46118   0.46949   0.47020   0.47383
 Alpha virt. eigenvalues --    0.48249   0.48366   0.49415   0.50592   0.50904
 Alpha virt. eigenvalues --    0.51769   0.52949   0.53936   0.54167   0.54897
 Alpha virt. eigenvalues --    0.54941   0.55195   0.55881   0.56206   0.56301
 Alpha virt. eigenvalues --    0.56841   0.57245   0.57837   0.58359   0.58742
 Alpha virt. eigenvalues --    0.59352   0.60086   0.60456   0.60886   0.61178
 Alpha virt. eigenvalues --    0.61549   0.62084   0.62739   0.63099   0.63479
 Alpha virt. eigenvalues --    0.63705   0.64799   0.64913   0.65275   0.65655
 Alpha virt. eigenvalues --    0.66436   0.66905   0.67154   0.67799   0.68193
 Alpha virt. eigenvalues --    0.68720   0.68928   0.69089   0.70657   0.71000
 Alpha virt. eigenvalues --    0.71292   0.71577   0.72089   0.72699   0.73250
 Alpha virt. eigenvalues --    0.73771   0.74205   0.74692   0.75047   0.75371
 Alpha virt. eigenvalues --    0.75919   0.76621   0.76902   0.77203   0.77615
 Alpha virt. eigenvalues --    0.78610   0.79066   0.79454   0.80027   0.80399
 Alpha virt. eigenvalues --    0.80997   0.82447   0.82951   0.83753   0.85321
 Alpha virt. eigenvalues --    0.85472   0.85954   0.86413   0.87206   0.87549
 Alpha virt. eigenvalues --    0.87931   0.88379   0.88733   0.89106   0.89704
 Alpha virt. eigenvalues --    0.89885   0.90804   0.91764   0.92162   0.92487
 Alpha virt. eigenvalues --    0.93107   0.93522   0.94441   0.94691   0.95682
 Alpha virt. eigenvalues --    0.96394   0.97196   0.97709   0.98568   0.98736
 Alpha virt. eigenvalues --    0.99485   0.99926   1.01029   1.01901   1.02308
 Alpha virt. eigenvalues --    1.03466   1.04233   1.05245   1.06105   1.06342
 Alpha virt. eigenvalues --    1.06859   1.07120   1.07266   1.08611   1.09315
 Alpha virt. eigenvalues --    1.09365   1.10079   1.11298   1.12387   1.13149
 Alpha virt. eigenvalues --    1.14095   1.14688   1.16055   1.16532   1.17495
 Alpha virt. eigenvalues --    1.18484   1.19665   1.20604   1.23382   1.23828
 Alpha virt. eigenvalues --    1.24970   1.26011   1.26725   1.27257   1.29652
 Alpha virt. eigenvalues --    1.30815   1.31093   1.31504   1.33192   1.33940
 Alpha virt. eigenvalues --    1.34135   1.35342   1.35762   1.35916   1.37145
 Alpha virt. eigenvalues --    1.38317   1.39549   1.40138   1.42893   1.45488
[...]
   375. RY*(   5) O  17                  0.00013     1.28861   
   376. RY*(   6) O  17                  0.00008     1.27347   
   377. RY*(   7) O  17                  0.00006     1.60847   
   378. RY*(   8) O  17                  0.00005     2.32610   
   379. RY*(   9) O  17                  0.00002     3.15244   
   380. RY*(  10) O  17                  0.00001     3.00727   
   381. RY*(  11) O  17                  0.00000     4.79478   
   382. RY*(  12) O  17                  0.00000     4.85112   
   383. RY*(  13) O  17                  0.00001     2.96487   
   384. RY*(  14) O  17                  0.00001     2.99484   
   385. RY*(  15) O  17                  0.00000     4.89540   
   386. RY*(  16) O  17                  0.00001     3.43426   
   387. RY*(  17) O  17                  0.00000    49.62213   
   388. RY*(   1) C  18                  0.00360     0.60576   
   389. RY*(   2) C  18                  0.00086     0.96088   
   390. RY*(   3) C  18                  0.00038     0.58614   
   391. RY*(   4) C  18                  0.00018     2.57975   
   392. RY*(   5) C  18                  0.00009     0.86453   
   393. RY*(   6) C  18                  0.00005     0.89643   
   394. RY*(   7) C  18                  0.00004     1.47821   
   395. RY*(   8) C  18                  0.00002     0.81723   
   396. RY*(   9) C  18                  0.00000     2.38461   
   397. RY*(  10) C  18                  0.00000     1.90641   
   398. RY*(  11) C  18                  0.00001     1.07370   
   399. RY*(  12) C  18                  0.00000     2.90586   
   400. RY*(  13) C  18                  0.00001     1.72532   
   401. RY*(  14) C  18                  0.00000     1.70871   
   402. RY*(  15) C  18                  0.00000     1.91672   
   403. RY*(  16) C  18                  0.00000    22.89373   
   404. RY*(  17) C  18                  0.00000     1.43752   
   405. RY*(   1) C  19                  0.00574     1.19723   
   406. RY*(   2) C  19                  0.00214     1.12943   
   407. RY*(   3) C  19                  0.00093     1.43723   
   408. RY*(   4) C  19                  0.00074     0.67979   
   409. RY*(   5) C  19                  0.00048     0.98040   
   410. RY*(   6) C  19                  0.00018     1.75127   
   411. RY*(   7) C  19                  0.00014     2.44528   
   412. RY*(   8) C  19                  0.00012     2.43672   
   413. RY*(   9) C  19                  0.00009     1.25235   
   414. RY*(  10) C  19                  0.00010     2.14151   
   415. RY*(  11) C  19                  0.00006     1.06508   
   416. RY*(  12) C  19                  0.00004     2.53890   
   417. RY*(  13) C  19                  0.00002     1.77615   
   418. RY*(  14) C  19                  0.00001     1.58852   
   419. RY*(  15) C  19                  0.00001    20.25503   
   420. RY*(  16) C  19                  0.00000     2.66302   
   421. RY*(  17) C  19                  0.00001     3.17530   
   422. RY*(   1) C  20                  0.00627     0.98248   
   423. RY*(   2) C  20                  0.00227     1.27076   
   424. RY*(   3) C  20                  0.00122     0.47083   
   425. RY*(   4) C  20                  0.00056     1.66553   
   426. RY*(   5) C  20                  0.00042     1.18016   
   427. RY*(   6) C  20                  0.00025     1.01283   
   428. RY*(   7) C  20                  0.00009     3.46830   
   429. RY*(   8) C  20                  0.00006     2.44008   
   430. RY*(   9) C  20                  0.00006     1.73445   
   431. RY*(  10) C  20                  0.00002     2.25633   
   432. RY*(  11) C  20                  0.00003     1.10053   
   433. RY*(  12) C  20                  0.00002     0.46272   
   434. RY*(  13) C  20                  0.00001     2.29769   
   435. RY*(  14) C  20                  0.00000    20.51395   
   436. RY*(  15) C  20                  0.00001     1.83615   
   437. RY*(  16) C  20                  0.00000     2.95770   
   438. RY*(  17) C  20                  0.00001     1.72772   
   439. RY*(   1) C  21                  0.00590     1.10086   
   440. RY*(   2) C  21                  0.00225     1.26890   
   441. RY*(   3) C  21                  0.00083     0.49137   
   442. RY*(   4) C  21                  0.00065     1.65837   
   443. RY*(   5) C  21                  0.00037     1.17103   
   444. RY*(   6) C  21                  0.00022     1.15249   
   445. RY*(   7) C  21                  0.00010     3.08520   
   446. RY*(   8) C  21                  0.00005     0.56866   
   447. RY*(   9) C  21                  0.00006     2.80536   
   448. RY*(  10) C  21                  0.00003     2.44278   
   449. RY*(  11) C  21                  0.00002     0.45695   
   450. RY*(  12) C  21                  0.00001     2.75105   
   451. RY*(  13) C  21                  0.00001     2.55016   
   452. RY*(  14) C  21                  0.00000    19.78538   
   453. RY*(  15) C  21                  0.00001     1.78547   
   454. RY*(  16) C  21                  0.00001     1.71834   
   455. RY*(  17) C  21                  0.00000     2.72811   
   456. RY*(   1) C  22                  0.00470     1.19210   
   457. RY*(   2) C  22                  0.00181     1.41521   
   458. RY*(   3) C  22                  0.00123     0.49700   
   459. RY*(   4) C  22                  0.00062     1.60663   
   460. RY*(   5) C  22                  0.00054     0.97088   
   461. RY*(   6) C  22                  0.00024     1.15174   
   462. RY*(   7) C  22                  0.00016     1.51548   
   463. RY*(   8) C  22                  0.00011     2.10536   
   464. RY*(   9) C  22                  0.00006     2.64875   
   465. RY*(  10) C  22                  0.00005     3.89461   
   466. RY*(  11) C  22                  0.00005     2.06711   
   467. RY*(  12) C  22                  0.00002     1.77422   
   468. RY*(  13) C  22                  0.00003     1.16956   
   469. RY*(  14) C  22                  0.00001     1.93827   
   470. RY*(  15) C  22                  0.00000     2.69192   
   471. RY*(  16) C  22                  0.00000    19.27360   
   472. RY*(  17) C  22                  0.00001     2.17722   
   473. RY*(   1) C  23                  0.00647     1.36283   
   474. RY*(   2) C  23                  0.00386     1.51212   
   475. RY*(   3) C  23                  0.00266     1.65475   
   476. RY*(   4) C  23                  0.00149     1.60754   
   477. RY*(   5) C  23                  0.00087     1.64534   
   478. RY*(   6) C  23                  0.00072     0.80975   
   479. RY*(   7) C  23                  0.00033     1.71160   
   480. RY*(   8) C  23                  0.00023     1.89042   
   481. RY*(   9) C  23                  0.00015     0.92735   
   482. RY*(  10) C  23                  0.00014     3.05325   
   483. RY*(  11) C  23                  0.00013     2.22864   
   484. RY*(  12) C  23                  0.00009     1.58461   
   485. RY*(  13) C  23                  0.00005     1.11170   
   486. RY*(  14) C  23                  0.00003     1.73962   
   487. RY*(  15) C  23                  0.00002     3.76281   
   488. RY*(  16) C  23                  0.00001    19.57330   
   489. RY*(  17) C  23                  0.00001     2.47978   
   490. RY*(   1) O  24                  0.00509     0.65101   
   491. RY*(   2) O  24                  0.00329     0.94706   
   492. RY*(   3) O  24                  0.00131     0.99248   
   493. RY*(   4) O  24                  0.00123     0.98730   
   494. RY*(   5) O  24                  0.00054     1.69827   
   495. RY*(   6) O  24                  0.00034     1.55851   
   496. RY*(   7) O  24                  0.00030     1.17004   
   497. RY*(   8) O  24                  0.00013     1.74746   
   498. RY*(   9) O  24                  0.00012     2.65763   
   499. RY*(  10) O  24                  0.00007     2.80517   
   500. RY*(  11) O  24                  0.00003     4.75725   
   501. RY*(  12) O  24                  0.00003     3.14076   
   502. RY*(  13) O  24                  0.00001     5.06604   
   503. RY*(  14) O  24                  0.00000    49.39988   
   504. RY*(  15) O  24                  0.00001     3.19363   
   505. RY*(  16) O  24                  0.00000     4.93964   
   506. RY*(  17) O  24                  0.00001     3.00147   
   507. RY*(   1) C  25                  0.00296     1.19269   
   508. RY*(   2) C  25                  0.00208     1.26151   
   509. RY*(   3) C  25                  0.00162     0.98198   
   510. RY*(   4) C  25                  0.00059     0.90855   
   511. RY*(   5) C  25                  0.00037     1.36862   
   512. RY*(   6) C  25                  0.00018     0.84454   
   513. RY*(   7) C  25                  0.00012     1.47191   
   514. RY*(   8) C  25                  0.00007     0.76268   
   515. RY*(   9) C  25                  0.00003     1.50127   
   516. RY*(  10) C  25                  0.00001     2.04756   
   517. RY*(  11) C  25                  0.00002     1.06215   
   518. RY*(  12) C  25                  0.00000     2.41244   
   519. RY*(  13) C  25                  0.00001     2.62014   
   520. RY*(  14) C  25                  0.00000    23.30786   
   521. RY*(  15) C  25                  0.00000     2.01056   
   522. RY*(  16) C  25                  0.00001     1.85918   
   523. RY*(  17) C  25                  0.00000     2.11028   
   524. RY*(   1) H  26                  0.00135     1.08670   
   525. RY*(   2) H  26                  0.00024     1.94561   
   526. RY*(   3) H  26                  0.00017     2.07777   
   527. RY*(   4) H  26                  0.00014     1.89658   
   528. RY*(   5) H  26                  0.00009     2.13466   
   529. RY*(   6) H  26                  0.00003     1.01771   
   530. RY*(   1) H  27                  0.00197     0.56712   
   531. RY*(   2) H  27                  0.00023     2.06057   
   532. RY*(   3) H  27                  0.00017     1.99919   
   533. RY*(   4) H  27                  0.00018     1.88199   
   534. RY*(   5) H  27                  0.00011     2.16087   
   535. RY*(   6) H  27                  0.00004     1.53409   
   536. RY*(   1) H  28                  0.00121     0.53434   
   537. RY*(   2) H  28                  0.00037     1.54342   
   538. RY*(   3) H  28                  0.00025     2.07336   
   539. RY*(   4) H  28                  0.00011     1.98497   
   540. RY*(   5) H  28                  0.00007     0.82099   
   541. RY*(   6) H  28                  0.00004     2.61690   
   542. RY*(   1) H  29                  0.00084     0.94747   
   543. RY*(   2) H  29                  0.00023     1.75163   
   544. RY*(   3) H  29                  0.00016     1.95094   
   545. RY*(   4) H  29                  0.00012     1.95300   
   546. RY*(   5) H  29                  0.00004     0.30701   
   547. RY*(   6) H  29                  0.00004     2.49142   
   548. RY*(   1) H  30                  0.00082     0.79171   
   549. RY*(   2) H  30                  0.00021     2.05300   
   550. RY*(   3) H  30                  0.00019     1.77026   
   551. RY*(   4) H  30                  0.00013     1.85719   
   552. RY*(   5) H  30                  0.00005     0.59097   
   553. RY*(   6) H  30                  0.00004     2.24602   
   554. RY*(   1) H  31                  0.00084     0.98190   
   555. RY*(   2) H  31                  0.00021     1.75646   
   556. RY*(   3) H  31                  0.00019     2.03801   
   557. RY*(   4) H  31                  0.00012     1.87403   
   558. RY*(   5) H  31                  0.00006     0.51311   
   559. RY*(   6) H  31                  0.00004     2.45001   
   560. RY*(   1) H  32                  0.00149     0.76532   
   561. RY*(   2) H  32                  0.00070     1.64290   
   562. RY*(   3) H  32                  0.00040     1.79956   
   563. RY*(   4) H  32                  0.00020     1.94420   
   564. RY*(   5) H  32                  0.00010     1.14591   
   565. RY*(   6) H  32                  0.00005     2.44482   
   566. RY*(   1) H  33                  0.00189     1.73065   
   567. RY*(   2) H  33                  0.00141     1.81849   
   568. RY*(   3) H  33                  0.00074     2.00714   
   569. RY*(   4) H  33                  0.00014     1.34323   
   570. RY*(   5) H  33                  0.00012     1.42396   
   571. RY*(   6) H  33                  0.00006     1.63498   
   572. RY*(   1) H  34                  0.00090     0.66660   
   573. RY*(   2) H  34                  0.00016     1.97523   
   574. RY*(   3) H  34                  0.00011     1.71199   
   575. RY*(   4) H  34                  0.00010     1.45288   
   576. RY*(   5) H  34                  0.00004     0.77467   
   577. RY*(   6) H  34                  0.00002     2.53303   
   578. RY*(   1) H  35                  0.00094     0.64020   
   579. RY*(   2) H  35                  0.00017     1.87424   
   580. RY*(   3) H  35                  0.00013     1.76270   
   581. RY*(   4) H  35                  0.00009     1.48540   
   582. RY*(   5) H  35                  0.00005     1.26527   
   583. RY*(   6) H  35                  0.00003     2.11810   
   584. RY*(   1) H  36                  0.00096     0.63650   
   585. RY*(   2) H  36                  0.00017     1.83759   
   586. RY*(   3) H  36                  0.00014     1.77783   
   587. RY*(   4) H  36                  0.00009     1.37572   
   588. RY*(   5) H  36                  0.00006     1.79115   
   589. RY*(   6) H  36                  0.00003     1.75398   
   590. RY*(   1) H  37                  0.00103     1.14105   
   591. RY*(   2) H  37                  0.00023     1.79585   
   592. RY*(   3) H  37                  0.00021     1.53831   
   593. RY*(   4) H  37                  0.00013     1.95075   
   594. RY*(   5) H  37                  0.00010     0.88510   
   595. RY*(   6) H  37                  0.00004     2.33637   
   596. RY*(   1) H  38                  0.00034     2.11730   
   597. RY*(   2) H  38                  0.00023     1.56517   
   598. RY*(   3) H  38                  0.00018     1.07115   
   599. RY*(   4) H  38                  0.00011     1.99409   
   600. RY*(   5) H  38                  0.00003     2.14728   
   601. RY*(   1) H  39                  0.00073     0.68199   
   602. RY*(   2) H  39                  0.00021     2.26606   
   603. RY*(   3) H  39                  0.00021     1.60025   
   604. RY*(   4) H  39                  0.00012     1.99268   
   605. RY*(   5) H  39                  0.00007     0.74957   
   606. RY*(   6) H  39                  0.00002     1.98824   
   607. RY*(   1) H  40                  0.00085     0.74842   
   608. RY*(   2) H  40                  0.00022     1.64949   
   609. RY*(   3) H  40                  0.00019     2.14772   
   610. RY*(   4) H  40                  0.00010     2.04514   
   611. RY*(   5) H  40                  0.00008     0.85959   
   612. RY*(   6) H  40                  0.00003     1.95696   
   613. RY*(   1) H  41                  0.00123     0.52430   
   614. RY*(   2) H  41                  0.00023     1.75476   
   615. RY*(   3) H  41                  0.00016     2.20037   
   616. RY*(   4) H  41                  0.00011     1.72547   
   617. RY*(   5) H  41                  0.00006     0.93735   
   618. RY*(   6) H  41                  0.00002     2.20186   
   619. RY*(   1) H  42                  0.00056     0.50331   
   620. RY*(   2) H  42                  0.00020     1.74476   
   621. RY*(   3) H  42                  0.00016     2.22415   
   622. RY*(   4) H  42                  0.00008     2.33807   
   623. RY*(   5) H  42                  0.00004     0.29724   
   624. RY*(   6) H  42                  0.00003     2.08025   
   625. RY*(   1) H  43                  0.00119     0.50075   
   626. RY*(   2) H  43                  0.00025     1.47129   
   627. RY*(   3) H  43                  0.00013     2.30120   
   628. RY*(   4) H  43                  0.00013     0.71541   
   629. RY*(   5) H  43                  0.00005     1.48439   
   630. RY*(   6) H  43                  0.00002     1.50488   
   631. BD*(   1) C   1 - C   2          0.02680     0.54979   
   632. BD*(   2) C   1 - C   2          0.39103     0.00670  638(v),643(v),97(g),649(r)
                                                    647(v),115(g),131(v),646(v)
                                                    116(g)
   633. BD*(   1) C   1 - C   6          0.01388     0.56309   
   634. BD*(   1) C   1 - H  28          0.01318     0.42164   
   635. BD*(   1) C   2 - C   3          0.02469     0.54681   
   636. BD*(   1) C   2 - N   7          0.02968     0.39130   
   637. BD*(   1) C   3 - C   4          0.01330     0.56869   
   638. BD*(   2) C   3 - C   4          0.31879     0.01464  643(v),632(v),149(g),131(g)
                                                    132(g)
   639. BD*(   1) C   3 - H  29          0.01273     0.42142   
   640. BD*(   1) C   4 - C   5          0.02430     0.56239   
   641. BD*(   1) C   4 - H  30          0.01393     0.42542   
   642. BD*(   1) C   5 - C   6          0.02357     0.56891   
   643. BD*(   2) C   5 - C   6          0.34089     0.02145  638(v),632(v),182(g),668(v)
                                                    667(v),148(v)
   644. BD*(   1) C   5 - C  18          0.01580     0.40696   
   645. BD*(   1) C   6 - H  31          0.01416     0.42543   
   646. BD*(   1) N   7 - C   8          0.02733     0.46634   
   647. BD*(   1) N   7 - H  32          0.02242     0.37132   
   648. BD*(   1) C   8 - C   9          0.02680     0.59909   
   649. BD*(   2) C   8 - C   9          0.30448     0.00872  658(v),632(r),233(g),654(v)
                                                    655(v),217(g),299(v),197(v)
   650. BD*(   1) C   8 - C  10          0.03652     0.36918   
   651. BD*(   1) C   9 - C  11          0.07967     0.44367   
   652. BD*(   1) C   9 -Cl  13          0.02875     0.15420   
   653. BD*(   1) C  10 - O  12          0.02882     0.26102   
   654. BD*(   1) C  10 - C  15          0.06052     0.32498   
   655. BD*(   1) C  10 - H  26          0.02722     0.38251   
   656. BD*(   1) C  11 - O  12          0.11662     0.32707  654(v),653(g),650(v),266(g)
                                                    652(v),648(v),271(g)
   657. BD*(   1) C  11 - O  14          0.01311     0.64788   
   658. BD*(   2) C  11 - O  14          0.29368     0.01971  649(v),267(g),321(g),684(r)
   659. BD*(   1) C  15 - C  16          0.03503     0.39678   
   660. BD*(   1) C  15 - O  17          0.02263     0.29330   
   661. BD*(   1) C  15 - H  27          0.02489     0.38781   
   662. BD*(   1) C  16 - C  19          0.01919     0.57445   
   663. BD*(   2) C  16 - C  19          0.34828     0.02763  672(v),677(v),408(g),654(v)
                                                    660(v),355(g),407(g),424(v)
   664. BD*(   1) C  16 - C  23          0.03152     0.55047   
   665. BD*(   1) O  17 - H  33          0.02206     0.44550   
   666. BD*(   1) C  18 - H  34          0.00401     0.39185   
   667. BD*(   1) C  18 - H  35          0.00748     0.39503   
   668. BD*(   1) C  18 - H  36          0.00970     0.40649   
   669. BD*(   1) C  19 - C  20          0.01551     0.58188   
   670. BD*(   1) C  19 - H  37          0.01446     0.43295   
   671. BD*(   1) C  20 - C  21          0.01584     0.58162  