 Entering Link 1 = C:\G09W\l1.exe PID=     40228.
  
 Copyright (c) 1988,1990,1992,1993,1995,1998,2003,2009,2013,
            Gaussian, Inc.  All Rights Reserved.
  
 This is part of the Gaussian(R) 09 program.  It is based on
 the Gaussian(R) 03 system (copyright 2003, Gaussian, Inc.),
 the Gaussian(R) 98 system (copyright 1998, Gaussian, Inc.),
 the Gaussian(R) 94 system (copyright 1995, Gaussian, Inc.),
 the Gaussian 92(TM) system (copyright 1992, Gaussian, Inc.),
 the Gaussian 90(TM) system (copyright 1990, Gaussian, Inc.),
 the Gaussian 88(TM) system (copyright 1988, Gaussian, Inc.),
 the Gaussian 86(TM) system (copyright 1986, Carnegie Mellon
 University), and the Gaussian 82(TM) system (copyright 1983,
 Carnegie Mellon University). Gaussian is a federally registered
 trademark of Gaussian, Inc.
  
 This software contains proprietary and confidential information,
 including trade secrets, belonging to Gaussian, Inc.
  
 This software is provided under written license and may be
 used, copied, transmitted, or stored only in accord with that
 written license.
  
 The following legend is applicable only to US Government
 contracts under FAR:
  
                    RESTRICTED RIGHTS LEGEND
  
 Use, reproduction and disclosure by the US Government is
 subject to restrictions as set forth in subparagraphs (a)
 and (c) of the Commercial Computer Software - Restricted
 Rights clause in FAR 52.227-19.
  
 Gaussian, Inc.
 340 Quinnipiac St., Bldg. 40, Wallingford CT 06492
  
  
 ---------------------------------------------------------------
 Warning -- This program may not be used in any manner that
 competes with the business of Gaussian, Inc. or will provide
 assistance to any competitor of Gaussian, Inc.  The licensee
 of this program is prohibited from giving any competitor of
 Gaussian, Inc. access to this program.  By using this program,
 the user acknowledges that Gaussian, Inc. is engaged in the
 business of creating and licensing software in the field of
 computational chemistry and represents and warrants to the
 licensee that it is not a competitor of Gaussian, Inc. and that
 it will not use this program in any manner prohibited above.
 ---------------------------------------------------------------
  

 Cite this work as:
 Gaussian 09, Revision D.01,
 M. J. Frisch, G. W. Trucks, H. B. Schlegel, G. E. Scuseria, 
 M. A. Robb, J. R. Cheeseman, G. Scalmani, V. Barone, B. Mennucci, 
 G. A. Petersson, H. Nakatsuji, M. Caricato, X. Li, H. P. Hratchian, 
 A. F. Izmaylov, J. Bloino, G. Zheng, J. L. Sonnenberg, M. Hada, 
 M. Ehara, K. Toyota, R. Fukuda, J. Hasegawa, M. Ishida, T. Nakajima, 
 Y. Honda, O. Kitao, H. Nakai, T. Vreven, J. A. Montgomery, Jr., 
 J. E. Peralta, F. Ogliaro, M. Bearpark, J. J. Heyd, E. Brothers, 
 K. N. Kudin, V. N. Staroverov, T. Keith, R. Kobayashi, J. Normand, 
 K. Raghavachari, A. Rendell, J. C. Burant, S. S. Iyengar, J. Tomasi, 
 M. Cossi, N. Rega, J. M. Millam, M. Klene, J. E. Knox, J. B. Cross, 
 V. Bakken, C. Adamo, J. Jaramillo, R. Gomperts, R. E. Stratmann, 
 O. Yazyev, A. J. Austin, R. Cammi, C. Pomelli, J. W. Ochterski, 
 R. L. Martin, K. Morokuma, V. G. Zakrzewski, G. A. Voth, 
 P. Salvador, J. J. Dannenberg, S. Dapprich, A. D. Daniels, 
 O. Farkas, J. B. Foresman, J. V. Ortiz, J. Cioslowski, 
 and D. J. Fox, Gaussian, Inc., Wallingford CT, 2013.
 
 ******************************************
 Gaussian 09:  IA32W-G09RevD.01 24-Apr-2013
                04-Jul-2019 
 ******************************************
 %nprocshared=4
 Will use up to    4 processors via shared memory.
 %mem=1600MB
 -------------------------------------------------------------
 #p opt b3lyp/6-311++g(d,p) pop=(nbo,chelpg) geom=connectivity
 -------------------------------------------------------------
 1/14=-1,18=20,19=15,26=3,38=1,57=2/1,3;
 2/9=110,12=2,17=6,18=5,40=1/2;
 3/5=4,6=6,7=1111,11=2,16=1,25=1,30=1,71=1,74=-5/1,2,3;
 4//1;
 5/5=2,38=5/2;
 6/7=2,8=2,9=2,10=2,15=8,20=3,28=1,40=1/1,2,7;
 7//1,2,3,16;
 1/14=-1,18=20,19=15,26=3/3(2);
 2/9=110/2;
 99//99;
 2/9=110/2;
 3/5=4,6=6,7=1111,11=2,16=1,25=1,30=1,71=1,74=-5/1,2,3;
 4/5=5,16=3,69=1/1;
 5/5=2,38=5/2;
 7//1,2,3,16;
 1/14=-1,18=20,19=15,26=3/3(-5);
 2/9=110/2;
 6/7=2,8=2,9=2,10=2,15=8,19=2,20=3,28=1,40=1/1,2,7;
 99/9=1/99;
 Leave Link    1 at Thu Jul 04 13:58:12 2019, MaxMem=   209715200 cpu:         0.0
 (Enter C:\G09W\l101.exe)
 ------
 9l.log
 ------
 Symbolic Z-matrix:
 Charge =  0 Multiplicity = 1
 C                     2.72474   2.08148  -1.27312 
 C                     3.1286    1.66278  -0.01557 
 C                     3.06305   2.55046   1.04898 
 C                     2.59258   3.83589   0.85346 
 C                     2.16113   4.26276  -0.39884 
 C                     2.23455   3.36464  -1.45508 
 N                     3.64963   0.35498   0.1979 
 C                     3.03167  -0.80415  -0.10976 
 C                     3.57354  -2.01562  -0.24775 
 C                     1.53434  -0.94691  -0.29568 
 C                     2.53235  -2.99596  -0.52855 
 O                     1.36219  -2.31692  -0.59001 
 Cl                    5.23603  -2.42715  -0.10571 
 O                     2.59643  -4.16246  -0.69282 
 C                     0.71983  -0.58917   0.96189 
 C                    -0.77404  -0.51895   0.68699 
 O                     1.05364  -1.45286   2.00637 
 C                     1.6131    5.65647  -0.59477 
 C                    -1.44198   0.68647   0.84415 
 C                    -2.804     0.78593   0.61382 
 C                    -3.54352  -0.32406   0.22351 
 C                    -2.87111  -1.53442   0.06762 
 C                    -1.51092  -1.63194   0.29186 
 C                    -5.01024  -0.22343  -0.02212 
 C                    -5.83662   0.45958   0.86653 
 C                    -7.19874   0.55401   0.63804 
 C                    -7.76015  -0.0333   -0.4836 
 C                    -6.94872  -0.71591  -1.37463 
 C                    -5.58665  -0.81002  -1.14589 
 H                     1.18282  -0.36756  -1.13888 
 H                     1.03939   0.39148   1.28373 
 H                     2.807     1.41303  -2.11188 
 H                     3.37847   2.22704   2.02495 
 H                     2.55383   4.51304   1.68915 
 H                     1.92198   3.67081  -2.43812 
 H                     4.62676   0.28563   0.37869 
 H                     0.71797  -2.31793   1.83197 
 H                     1.68992   5.96715  -1.63015 
 H                     0.56468   5.70326  -0.31306 
 H                     2.14844   6.37753   0.01289 
 H                    -0.89613   1.56385   1.14638 
 H                    -3.29039   1.73851   0.72526 
 H                    -3.42021  -2.41381  -0.21757 
 H                    -1.02692  -2.58029   0.14638 
 H                    -5.41461   0.90101   1.75185 
 H                    -7.82155   1.07952   1.34047 
 H                    -8.81855   0.03937  -0.66096 
 H                    -7.37406  -1.17053  -2.25201 
 H                    -4.96362  -1.32625  -1.85446 
 
 NAtoms=     49 NQM=       49 NQMF=       0 NMMI=      0 NMMIF=      0
                NMic=       0 NMicF=      0.
                    Isotopes and Nuclear Properties:
 (Nuclear quadrupole moments (NQMom) in fm**2, nuclear magnetic moments (NMagM)
  in nuclear magnetons)

  Atom         1           2           3           4           5           6           7           8           9          10
 IAtWgt=          12          12          12          12          12          12          14          12          12          12
 AtmWgt=  12.0000000  12.0000000  12.0000000  12.0000000  12.0000000  12.0000000  14.0030740  12.0000000  12.0000000  12.0000000
 NucSpn=           0           0           0           0           0           0           2           0           0           0
 AtZEff=   0.0000000   0.0000000   0.0000000   0.0000000   0.0000000   0.0000000   0.0000000   0.0000000   0.0000000   0.0000000
 NQMom=    0.0000000   0.0000000   0.0000000   0.0000000   0.0000000   0.0000000   2.0440000   0.0000000   0.0000000   0.0000000
 NMagM=    0.0000000   0.0000000   0.0000000   0.0000000   0.0000000   0.0000000   0.4037610   0.0000000   0.0000000   0.0000000
 AtZNuc=   6.0000000   6.0000000   6.0000000   6.0000000   6.0000000   6.0000000   7.0000000   6.0000000   6.0000000   6.0000000

  Atom        11          12          13          14          15          16          17          18          19          20
 IAtWgt=          12          16          35          16          12          12          16          12          12          12
 AtmWgt=  12.0000000  15.9949146  34.9688527  15.9949146  12.0000000  12.0000000  15.9949146  12.0000000  12.0000000  12.0000000
 NucSpn=           0           0           3           0           0           0           0           0           0           0
 AtZEff=   0.0000000   0.0000000   0.0000000   0.0000000   0.0000000   0.0000000   0.0000000   0.0000000   0.0000000   0.0000000
 NQMom=    0.0000000   0.0000000  -8.1650000   0.0000000   0.0000000   0.0000000   0.0000000   0.0000000   0.0000000   0.0000000
 NMagM=    0.0000000   0.0000000   0.8218740   0.0000000   0.0000000   0.0000000   0.0000000   0.0000000   0.0000000   0.0000000
 AtZNuc=   6.0000000   8.0000000  17.0000000   8.0000000   6.0000000   6.0000000   8.0000000   6.0000000   6.0000000   6.0000000

  Atom        21          22          23          24          25          26          27          28          29          30
 IAtWgt=          12          12          12          12          12          12          12          12          12           1
 AtmWgt=  12.0000000  12.0000000  12.0000000  12.0000000  12.0000000  12.0000000  12.0000000  12.0000000  12.0000000   1.0078250
 NucSpn=           0           0           0           0           0           0           0           0           0           1
 AtZEff=   0.0000000   0.0000000   0.0000000   0.0000000   0.0000000   0.0000000   0.0000000   0.0000000   0.0000000   0.0000000
 NQMom=    0.0000000   0.0000000   0.0000000   0.0000000   0.0000000   0.0000000   0.0000000   0.0000000   0.0000000   0.0000000
 NMagM=    0.0000000   0.0000000   0.0000000   0.0000000   0.0000000   0.0000000   0.0000000   0.0000000   0.0000000   2.7928460
 AtZNuc=   6.0000000   6.0000000   6.0000000   6.0000000   6.0000000   6.0000000   6.0000000   6.0000000   6.0000000   1.0000000

  Atom        31          32          33          34          35          36          37          38          39          40
 IAtWgt=           1           1           1           1           1           1           1           1           1           1
 AtmWgt=   1.0078250   1.0078250   1.0078250   1.0078250   1.0078250   1.0078250   1.0078250   1.0078250   1.0078250   1.0078250
 NucSpn=           1           1           1           1           1           1           1           1           1           1
 AtZEff=   0.0000000   0.0000000   0.0000000   0.0000000   0.0000000   0.0000000   0.0000000   0.0000000   0.0000000   0.0000000
 NQMom=    0.0000000   0.0000000   0.0000000   0.0000000   0.0000000   0.0000000   0.0000000   0.0000000   0.0000000   0.0000000
 NMagM=    2.7928460   2.7928460   2.7928460   2.7928460   2.7928460   2.7928460   2.7928460   2.7928460   2.7928460   2.7928460
 AtZNuc=   1.0000000   1.0000000   1.0000000   1.0000000   1.0000000   1.0000000   1.0000000   1.0000000   1.0000000   1.0000000

  Atom        41          42          43          44          45          46          47          48          49
 IAtWgt=           1           1           1           1           1           1           1           1           1
 AtmWgt=   1.0078250   1.0078250   1.0078250   1.0078250   1.0078250   1.0078250   1.0078250   1.0078250   1.0078250
 NucSpn=           1           1           1           1           1           1           1           1           1
 AtZEff=   0.0000000   0.0000000   0.0000000   0.0000000   0.0000000   0.0000000   0.0000000   0.0000000   0.0000000
 NQMom=    0.0000000   0.0000000   0.0000000   0.0000000   0.0000000   0.0000000   0.0000000   0.0000000   0.0000000
 NMagM=    2.7928460   2.7928460   2.7928460   2.7928460   2.7928460   2.7928460   2.7928460   2.7928460   2.7928460
 AtZNuc=   1.0000000   1.0000000   1.0000000   1.0000000   1.0000000   1.0000000   1.0000000   1.0000000   1.0000000
 Leave Link  101 at Thu Jul 04 13:58:12 2019, MaxMem=   209715200 cpu:         0.0
 (Enter C:\G09W\l103.exe)

 GradGradGradGradGradGradGradGradGradGradGradGradGradGradGradGradGradGrad
 Berny optimization.
 Initialization pass.
                           ----------------------------
                           !    Initial Parameters    !
                           ! (Angstroms and Degrees)  !
 --------------------------                            --------------------------
 ! Name  Definition              Value          Derivative Info.                !
 --------------------------------------------------------------------------------
 ! R1    R(1,2)                  1.3856         estimate D2E/DX2                !
 ! R2    R(1,6)                  1.3856         estimate D2E/DX2                !
 ! R3    R(1,32)                 1.0757         estimate D2E/DX2                !
 ! R4    R(2,3)                  1.3876         estimate D2E/DX2                !
 ! R5    R(2,7)                  1.4239         estimate D2E/DX2                !
 ! R6    R(3,4)                  1.3827         estimate D2E/DX2                !
 ! R7    R(3,33)                 1.0755         estimate D2E/DX2                !
 ! R8    R(4,5)                  1.3916         estimate D2E/DX2                !
 ! R9    R(4,34)                 1.0763         estimate D2E/DX2                !
 ! R10   R(5,6)                  1.3884         estimate D2E/DX2                !
 ! R11   R(5,18)                 1.5104         estimate D2E/DX2                !
 ! R12   R(6,35)                 1.076          estimate D2E/DX2                !
 ! R13   R(7,8)                  1.3491         estimate D2E/DX2                !
 ! R14   R(7,36)                 0.9961         estimate D2E/DX2                !
 ! R15   R(8,9)                  1.3343         estimate D2E/DX2                !
 ! R16   R(8,10)                 1.5156         estimate D2E/DX2                !
 ! R17   R(9,11)                 1.4574         estimate D2E/DX2                !
 ! R18   R(9,13)                 1.7185         estimate D2E/DX2                !
 ! R19   R(10,12)                1.4118         estimate D2E/DX2                !
 ! R20   R(10,15)                1.5404         estimate D2E/DX2                !
 ! R21   R(10,30)                1.0818         estimate D2E/DX2                !
 ! R22   R(11,12)                1.3543         estimate D2E/DX2                !
 ! R23   R(11,14)                1.1798         estimate D2E/DX2                !
 ! R24   R(15,16)                1.5206         estimate D2E/DX2                !
 ! R25   R(15,17)                1.3958         estimate D2E/DX2                !
 ! R26   R(15,31)                1.0804         estimate D2E/DX2                !
 ! R27   R(16,19)                1.387          estimate D2E/DX2                !
 ! R28   R(16,23)                1.3921         estimate D2E/DX2                !
 ! R29   R(17,37)                0.9442         estimate D2E/DX2                !
 ! R30   R(18,38)                1.0837         estimate D2E/DX2                !
 ! R31   R(18,39)                1.0866         estimate D2E/DX2                !
 ! R32   R(18,40)                1.0843         estimate D2E/DX2                !
 ! R33   R(19,20)                1.3849         estimate D2E/DX2                !
 ! R34   R(19,41)                1.0766         estimate D2E/DX2                !
 ! R35   R(20,21)                1.3897         estimate D2E/DX2                !
 ! R36   R(20,42)                1.0754         estimate D2E/DX2                !
 ! R37   R(21,22)                1.3933         estimate D2E/DX2                !
 ! R38   R(21,24)                1.4905         estimate D2E/DX2                !
 ! R39   R(22,23)                1.382          estimate D2E/DX2                !
 ! R40   R(22,43)                1.0752         estimate D2E/DX2                !
 ! R41   R(23,44)                1.0746         estimate D2E/DX2                !
 ! R42   R(24,25)                1.3925         estimate D2E/DX2                !
 ! R43   R(24,29)                1.3926         estimate D2E/DX2                !
 ! R44   R(25,26)                1.3844         estimate D2E/DX2                !
 ! R45   R(25,45)                1.0755         estimate D2E/DX2                !
 ! R46   R(26,27)                1.385          estimate D2E/DX2                !
 ! R47   R(26,46)                1.0759         estimate D2E/DX2                !
 ! R48   R(27,28)                1.385          estimate D2E/DX2                !
 ! R49   R(27,47)                1.0756         estimate D2E/DX2                !
 ! R50   R(28,29)                1.3843         estimate D2E/DX2                !
 ! R51   R(28,48)                1.0758         estimate D2E/DX2                !
 ! R52   R(29,49)                1.0755         estimate D2E/DX2                !
 ! A1    A(2,1,6)              120.1417         estimate D2E/DX2                !
 ! A2    A(2,1,32)             119.843          estimate D2E/DX2                !
 ! A3    A(6,1,32)             120.0083         estimate D2E/DX2                !
 ! A4    A(1,2,3)              119.2882         estimate D2E/DX2                !
 ! A5    A(1,2,7)              121.3507         estimate D2E/DX2                !
 ! A6    A(3,2,7)              119.3296         estimate D2E/DX2                !
 ! A7    A(2,3,4)              120.1516         estimate D2E/DX2                !
 ! A8    A(2,3,33)             119.3387         estimate D2E/DX2                !
 ! A9    A(4,3,33)             120.5094         estimate D2E/DX2                !
 ! A10   A(3,4,5)              121.1911         estimate D2E/DX2                !
 ! A11   A(3,4,34)             119.1661         estimate D2E/DX2                !
 ! A12   A(5,4,34)             119.6411         estimate D2E/DX2                !
 ! A13   A(4,5,6)              118.0201         estimate D2E/DX2                !
 ! A14   A(4,5,18)             120.8161         estimate D2E/DX2                !
 ! A15   A(6,5,18)             121.159          estimate D2E/DX2                !
 ! A16   A(1,6,5)              121.1883         estimate D2E/DX2                !
 ! A17   A(1,6,35)             119.094          estimate D2E/DX2                !
 ! A18   A(5,6,35)             119.7097         estimate D2E/DX2                !
 ! A19   A(2,7,8)              125.9687         estimate D2E/DX2                !
 ! A20   A(2,7,36)             116.7501         estimate D2E/DX2                !
 ! A21   A(8,7,36)             115.5238         estimate D2E/DX2                !
 ! A22   A(7,8,9)              128.1455         estimate D2E/DX2                !
 ! A23   A(7,8,10)             124.1556         estimate D2E/DX2                !
 ! A24   A(9,8,10)             107.6385         estimate D2E/DX2                !
 ! A25   A(8,9,11)             109.9098         estimate D2E/DX2                !
 ! A26   A(8,9,13)             126.9942         estimate D2E/DX2                !
 ! A27   A(11,9,13)            123.0908         estimate D2E/DX2                !
 ! A28   A(8,10,12)            103.7364         estimate D2E/DX2                !
 ! A29   A(8,10,15)            113.6017         estimate D2E/DX2                !
 ! A30   A(8,10,30)            111.4824         estimate D2E/DX2                !
 ! A31   A(12,10,15)           109.3345         estimate D2E/DX2                !
 ! A32   A(12,10,30)           108.5166         estimate D2E/DX2                !
 ! A33   A(15,10,30)           109.8857         estimate D2E/DX2                !
 ! A34   A(9,11,12)            106.7836         estimate D2E/DX2                !
 ! A35   A(9,11,14)            130.7783         estimate D2E/DX2                !
 ! A36   A(12,11,14)           122.4368         estimate D2E/DX2                !
 ! A37   A(10,12,11)           111.8221         estimate D2E/DX2                !
 ! A38   A(10,15,16)           112.4951         estimate D2E/DX2                !
 ! A39   A(10,15,17)           109.9212         estimate D2E/DX2                !
 ! A40   A(10,15,31)           107.3121         estimate D2E/DX2                !
 ! A41   A(16,15,17)           113.5035         estimate D2E/DX2                !
 ! A42   A(16,15,31)           107.6088         estimate D2E/DX2                !
 ! A43   A(17,15,31)           105.5444         estimate D2E/DX2                !
 ! A44   A(15,16,19)           119.5211         estimate D2E/DX2                !
 ! A45   A(15,16,23)           122.3061         estimate D2E/DX2                !
 ! A46   A(19,16,23)           118.1696         estimate D2E/DX2                !
 ! A47   A(15,17,37)           110.1027         estimate D2E/DX2                !
 ! A48   A(5,18,38)            111.2696         estimate D2E/DX2                !
 ! A49   A(5,18,39)            110.8665         estimate D2E/DX2                !
 ! A50   A(5,18,40)            111.2101         estimate D2E/DX2                !
 ! A51   A(38,18,39)           107.6826         estimate D2E/DX2                !
 ! A52   A(38,18,40)           108.0458         estimate D2E/DX2                !
 ! A53   A(39,18,40)           107.604          estimate D2E/DX2                !
 ! A54   A(16,19,20)           121.1418         estimate D2E/DX2                !
 ! A55   A(16,19,41)           119.7288         estimate D2E/DX2                !
 ! A56   A(20,19,41)           119.129          estimate D2E/DX2                !
 ! A57   A(19,20,21)           120.8428         estimate D2E/DX2                !
 ! A58   A(19,20,42)           119.4198         estimate D2E/DX2                !
 ! A59   A(21,20,42)           119.7313         estimate D2E/DX2                !
 ! A60   A(20,21,22)           117.9332         estimate D2E/DX2                !
 ! A61   A(20,21,24)           121.0637         estimate D2E/DX2                !
 ! A62   A(22,21,24)           121.0031         estimate D2E/DX2                !
 ! A63   A(21,22,23)           121.2058         estimate D2E/DX2                !
 ! A64   A(21,22,43)           119.5822         estimate D2E/DX2                !
 ! A65   A(23,22,43)           119.2052         estimate D2E/DX2                !
 ! A66   A(16,23,22)           120.7059         estimate D2E/DX2                !
 ! A67   A(16,23,44)           120.3708         estimate D2E/DX2                !
 ! A68   A(22,23,44)           118.9203         estimate D2E/DX2                !
 ! A69   A(21,24,25)           120.7914         estimate D2E/DX2                !
 ! A70   A(21,24,29)           120.7873         estimate D2E/DX2                !
 ! A71   A(25,24,29)           118.4213         estimate D2E/DX2                !
 ! A72   A(24,25,26)           120.7996         estimate D2E/DX2                !
 ! A73   A(24,25,45)           119.5878         estimate D2E/DX2                !
 ! A74   A(26,25,45)           119.5997         estimate D2E/DX2                !
 ! A75   A(25,26,27)           120.2367         estimate D2E/DX2                !
 ! A76   A(25,26,46)           119.6792         estimate D2E/DX2                !
 ! A77   A(27,26,46)           120.0823         estimate D2E/DX2                !
 ! A78   A(26,27,28)           119.5066         estimate D2E/DX2                !
 ! A79   A(26,27,47)           120.2484         estimate D2E/DX2                !
 ! A80   A(28,27,47)           120.2449         estimate D2E/DX2                !
 ! A81   A(27,28,29)           120.2408         estimate D2E/DX2                !
 ! A82   A(27,28,48)           120.0867         estimate D2E/DX2                !
 ! A83   A(29,28,48)           119.6713         estimate D2E/DX2                !
 ! A84   A(24,29,28)           120.795          estimate D2E/DX2                !
 ! A85   A(24,29,49)           119.608          estimate D2E/DX2                !
 ! A86   A(28,29,49)           119.5865         estimate D2E/DX2                !
 ! D1    D(6,1,2,3)             -1.3693         estimate D2E/DX2                !
 ! D2    D(6,1,2,7)           -179.3136         estimate D2E/DX2                !
 ! D3    D(32,1,2,3)           177.6673         estimate D2E/DX2                !
 ! D4    D(32,1,2,7)            -0.2771         estimate D2E/DX2                !
 ! D5    D(2,1,6,5)              1.2836         estimate D2E/DX2                !
 ! D6    D(2,1,6,35)          -179.7552         estimate D2E/DX2                !
 ! D7    D(32,1,6,5)          -177.7513         estimate D2E/DX2                !
 ! D8    D(32,1,6,35)            1.2099         estimate D2E/DX2                !
 ! D9    D(1,2,3,4)              0.3308         estimate D2E/DX2                !
 ! D10   D(1,2,3,33)          -179.8581         estimate D2E/DX2                !
 ! D11   D(7,2,3,4)            178.3172         estimate D2E/DX2                !
 ! D12   D(7,2,3,33)            -1.8717         estimate D2E/DX2                !
 ! D13   D(1,2,7,8)            -56.0066         estimate D2E/DX2                !
 ! D14   D(1,2,7,36)           108.1454         estimate D2E/DX2                !
 ! D15   D(3,2,7,8)            126.0499         estimate D2E/DX2                !
 ! D16   D(3,2,7,36)           -69.7981         estimate D2E/DX2                !
 ! D17   D(2,3,4,5)              0.8273         estimate D2E/DX2                !
 ! D18   D(2,3,4,34)          -179.6517         estimate D2E/DX2                !
 ! D19   D(33,3,4,5)          -178.9816         estimate D2E/DX2                !
 ! D20   D(33,3,4,34)            0.5393         estimate D2E/DX2                !
 ! D21   D(3,4,5,6)             -0.9182         estimate D2E/DX2                !
 ! D22   D(3,4,5,18)           178.2942         estimate D2E/DX2                !
 ! D23   D(34,4,5,6)           179.5631         estimate D2E/DX2                !
 ! D24   D(34,4,5,18)           -1.2245         estimate D2E/DX2                !
 ! D25   D(4,5,6,1)             -0.136          estimate D2E/DX2                !
 ! D26   D(4,5,6,35)          -179.0909         estimate D2E/DX2                !
 ! D27   D(18,5,6,1)          -179.3455         estimate D2E/DX2                !
 ! D28   D(18,5,6,35)            1.6996         estimate D2E/DX2                !
 ! D29   D(4,5,18,38)          157.5896         estimate D2E/DX2                !
 ! D30   D(4,5,18,39)          -82.5948         estimate D2E/DX2                !
 ! D31   D(4,5,18,40)           37.0826         estimate D2E/DX2                !
 ! D32   D(6,5,18,38)          -23.223          estimate D2E/DX2                !
 ! D33   D(6,5,18,39)           96.5927         estimate D2E/DX2                !
 ! D34   D(6,5,18,40)         -143.7299         estimate D2E/DX2                !
 ! D35   D(2,7,8,9)            161.6882         estimate D2E/DX2                !
 ! D36   D(2,7,8,10)           -21.4954         estimate D2E/DX2                !
 ! D37   D(36,7,8,9)            -2.6336         estimate D2E/DX2                !
 ! D38   D(36,7,8,10)          174.1828         estimate D2E/DX2                !
 ! D39   D(7,8,9,11)           177.5779         estimate D2E/DX2                !
 ! D40   D(7,8,9,13)            -1.6064         estimate D2E/DX2                !
 ! D41   D(10,8,9,11)            0.342          estimate D2E/DX2                !
 ! D42   D(10,8,9,13)         -178.8423         estimate D2E/DX2                !
 ! D43   D(7,8,10,12)         -179.546          estimate D2E/DX2                !
 ! D44   D(7,8,10,15)          -60.9423         estimate D2E/DX2                !
 ! D45   D(7,8,10,30)           63.868          estimate D2E/DX2                !
 ! D46   D(9,8,10,12)           -2.1728         estimate D2E/DX2                !
 ! D47   D(9,8,10,15)          116.4309         estimate D2E/DX2                !
 ! D48   D(9,8,10,30)         -118.7589         estimate D2E/DX2                !
 ! D49   D(8,9,11,12)            1.7232         estimate D2E/DX2                !
 ! D50   D(8,9,11,14)         -178.6853         estimate D2E/DX2                !
 ! D51   D(13,9,11,12)        -179.0545         estimate D2E/DX2                !
 ! D52   D(13,9,11,14)           0.537          estimate D2E/DX2                !
 ! D53   D(8,10,12,11)           3.3611         estimate D2E/DX2                !
 ! D54   D(15,10,12,11)       -118.1436         estimate D2E/DX2                !
 ! D55   D(30,10,12,11)        122.0106         estimate D2E/DX2                !
 ! D56   D(8,10,15,16)         170.5994         estimate D2E/DX2                !
 ! D57   D(8,10,15,17)         -61.8689         estimate D2E/DX2                !
 ! D58   D(8,10,15,31)          52.4322         estimate D2E/DX2                !
 ! D59   D(12,10,15,16)        -74.0648         estimate D2E/DX2                !
 ! D60   D(12,10,15,17)         53.467          estimate D2E/DX2                !
 ! D61   D(12,10,15,31)        167.768          estimate D2E/DX2                !
 ! D62   D(30,10,15,16)         44.9357         estimate D2E/DX2                !
 ! D63   D(30,10,15,17)        172.4674         estimate D2E/DX2                !
 ! D64   D(30,10,15,31)        -73.2315         estimate D2E/DX2                !
 ! D65   D(9,11,12,10)          -3.2417         estimate D2E/DX2                !
 ! D66   D(14,11,12,10)        177.1248         estimate D2E/DX2                !
 ! D67   D(10,15,16,19)       -116.6361         estimate D2E/DX2                !
 ! D68   D(10,15,16,23)         64.0273         estimate D2E/DX2                !
 ! D69   D(17,15,16,19)        117.7554         estimate D2E/DX2                !
 ! D70   D(17,15,16,23)        -61.5812         estimate D2E/DX2                !
 ! D71   D(31,15,16,19)          1.3561         estimate D2E/DX2                !
 ! D72   D(31,15,16,23)       -177.9804         estimate D2E/DX2                !
 ! D73   D(10,15,17,37)        -70.6385         estimate D2E/DX2                !
 ! D74   D(16,15,17,37)         56.3304         estimate D2E/DX2                !
 ! D75   D(31,15,17,37)        173.9357         estimate D2E/DX2                !
 ! D76   D(15,16,19,20)       -179.4524         estimate D2E/DX2                !
 ! D77   D(15,16,19,41)          0.7992         estimate D2E/DX2                !
 ! D78   D(23,16,19,20)         -0.0885         estimate D2E/DX2                !
 ! D79   D(23,16,19,41)       -179.8368         estimate D2E/DX2                !
 ! D80   D(15,16,23,22)        179.1466         estimate D2E/DX2                !
 ! D81   D(15,16,23,44)         -1.4945         estimate D2E/DX2                !
 ! D82   D(19,16,23,22)         -0.1985         estimate D2E/DX2                !
 ! D83   D(19,16,23,44)        179.1604         estimate D2E/DX2                !
 ! D84   D(16,19,20,21)          0.3032         estimate D2E/DX2                !
 ! D85   D(16,19,20,42)       -178.7999         estimate D2E/DX2                !
 ! D86   D(41,19,20,21)       -179.947          estimate D2E/DX2                !
 ! D87   D(41,19,20,42)          0.9499         estimate D2E/DX2                !
 ! D88   D(19,20,21,22)         -0.2225         estimate D2E/DX2                !
 ! D89   D(19,20,21,24)        179.8327         estimate D2E/DX2                !
 ! D90   D(42,20,21,22)        178.8779         estimate D2E/DX2                !
 ! D91   D(42,20,21,24)         -1.0669         estimate D2E/DX2                !
 ! D92   D(20,21,22,23)         -0.0647         estimate D2E/DX2                !
 ! D93   D(20,21,22,43)        178.9816         estimate D2E/DX2                !
 ! D94   D(24,21,22,23)        179.8802         estimate D2E/DX2                !
 ! D95   D(24,21,22,43)         -1.0735         estimate D2E/DX2                !
 ! D96   D(20,21,24,25)        -45.1088         estimate D2E/DX2                !
 ! D97   D(20,21,24,29)        134.8795         estimate D2E/DX2                !
 ! D98   D(22,21,24,25)        134.9481         estimate D2E/DX2                !
 ! D99   D(22,21,24,29)        -45.0636         estimate D2E/DX2                !
 ! D100  D(21,22,23,16)          0.2782         estimate D2E/DX2                !
 ! D101  D(21,22,23,44)       -179.0898         estimate D2E/DX2                !
 ! D102  D(43,22,23,16)       -178.7716         estimate D2E/DX2                !
 ! D103  D(43,22,23,44)          1.8604         estimate D2E/DX2                !
 ! D104  D(21,24,25,26)        179.9511         estimate D2E/DX2                !
 ! D105  D(21,24,25,45)         -1.3667         estimate D2E/DX2                !
 ! D106  D(29,24,25,26)         -0.0375         estimate D2E/DX2                !
 ! D107  D(29,24,25,45)        178.6447         estimate D2E/DX2                !
 ! D108  D(21,24,29,28)       -179.9577         estimate D2E/DX2                !
 ! D109  D(21,24,29,49)         -1.14           estimate D2E/DX2                !
 ! D110  D(25,24,29,28)          0.0309         estimate D2E/DX2                !
 ! D111  D(25,24,29,49)        178.8486         estimate D2E/DX2                !
 ! D112  D(24,25,26,27)          0.0157         estimate D2E/DX2                !
 ! D113  D(24,25,26,46)        179.5253         estimate D2E/DX2                !
 ! D114  D(45,25,26,27)       -178.6664         estimate D2E/DX2                !
 ! D115  D(45,25,26,46)          0.8433         estimate D2E/DX2                !
 ! D116  D(25,26,27,28)          0.0136         estimate D2E/DX2                !
 ! D117  D(25,26,27,47)        179.9575         estimate D2E/DX2                !
 ! D118  D(46,26,27,28)       -179.4941         estimate D2E/DX2                !
 ! D119  D(46,26,27,47)          0.4498         estimate D2E/DX2                !
 ! D120  D(26,27,28,29)         -0.0202         estimate D2E/DX2                !
 ! D121  D(26,27,28,48)       -179.6276         estimate D2E/DX2                !
 ! D122  D(47,27,28,29)       -179.964          estimate D2E/DX2                !
 ! D123  D(47,27,28,48)          0.4286         estimate D2E/DX2                !
 ! D124  D(27,28,29,24)         -0.0024         estimate D2E/DX2                !
 ! D125  D(27,28,29,49)       -178.8203         estimate D2E/DX2                !
 ! D126  D(48,28,29,24)        179.6066         estimate D2E/DX2                !
 ! D127  D(48,28,29,49)          0.7888         estimate D2E/DX2                !
 --------------------------------------------------------------------------------
 Trust Radius=3.00D-01 FncErr=1.00D-07 GrdErr=1.00D-06
 Number of steps in this run=    275 maximum allowed number of steps=    294.
 GradGradGradGradGradGradGradGradGradGradGradGradGradGradGradGradGradGrad

 Leave Link  103 at Thu Jul 04 13:58:12 2019, MaxMem=   209715200 cpu:         0.0
 (Enter C:\G09W\l202.exe)
                          Input orientation:                          
 ---------------------------------------------------------------------
 Center     Atomic      Atomic             Coordinates (Angstroms)
 Number     Number       Type             X           Y           Z
 ---------------------------------------------------------------------
      1          6           0        2.724739    2.081477   -1.273122
      2          6           0        3.128597    1.662780   -0.015572
      3          6           0        3.063052    2.550461    1.048977
      4          6           0        2.592577    3.835889    0.853458
      5          6           0        2.161133    4.262755   -0.398837
      6          6           0        2.234553    3.364638   -1.455079
      7          7           0        3.649631    0.354975    0.197896
      8          6           0        3.031674   -0.804152   -0.109762
      9          6           0        3.573541   -2.015621   -0.247752
     10          6           0        1.534344   -0.946914   -0.295679
     11          6           0        2.532349   -2.995957   -0.528547
     12          8           0        1.362189   -2.316922   -0.590007
     13         17           0        5.236031   -2.427145   -0.105706
     14          8           0        2.596427   -4.162457   -0.692823
     15          6           0        0.719828   -0.589167    0.961892
     16          6           0       -0.774038   -0.518954    0.686986
     17          8           0        1.053639   -1.452864    2.006366
     18          6           0        1.613103    5.656472   -0.594769
     19          6           0       -1.441979    0.686468    0.844149
     20          6           0       -2.803998    0.785929    0.613816
     21          6           0       -3.543522   -0.324060    0.223509
     22          6           0       -2.871110   -1.534422    0.067616
     23          6           0       -1.510917   -1.631938    0.291860
     24          6           0       -5.010240   -0.223425   -0.022118
     25          6           0       -5.836622    0.459580    0.866525
     26          6           0       -7.198744    0.554010    0.638036
     27          6           0       -7.760145   -0.033297   -0.483604
     28          6           0       -6.948723   -0.715910   -1.374625
     29          6           0       -5.586654   -0.810018   -1.145889
     30          1           0        1.182820   -0.367564   -1.138883
     31          1           0        1.039389    0.391475    1.283731
     32          1           0        2.806997    1.413033   -2.111883
     33          1           0        3.378474    2.227045    2.024951
     34          1           0        2.553829    4.513044    1.689149
     35          1           0        1.921978    3.670806   -2.438118
     36          1           0        4.626755    0.285628    0.378688
     37          1           0        0.717972   -2.317932    1.831974
     38          1           0        1.689924    5.967146   -1.630146
     39          1           0        0.564676    5.703256   -0.313059
     40          1           0        2.148443    6.377531    0.012892
     41          1           0       -0.896133    1.563850    1.146382
     42          1           0       -3.290393    1.738509    0.725255
     43          1           0       -3.420206   -2.413809   -0.217573
     44          1           0       -1.026919   -2.580285    0.146377
     45          1           0       -5.414606    0.901010    1.751851
     46          1           0       -7.821549    1.079518    1.340473
     47          1           0       -8.818547    0.039372   -0.660963
     48          1           0       -7.374059   -1.170531   -2.252008
     49          1           0       -4.963622   -1.326247   -1.854462
 ---------------------------------------------------------------------
                    Distance matrix (angstroms):
                    1          2          3          4          5
     1  C    0.000000
     2  C    1.385583   0.000000
     3  C    2.393020   1.387638   0.000000
     4  C    2.760031   2.401028   1.382715   0.000000
     5  C    2.416609   2.800491   2.416935   1.391618   0.000000
     6  C    1.385602   2.401628   2.760361   2.383192   1.388399
     7  N    2.449516   1.423868   2.426638   3.696470   4.224034
     8  C    3.126415   2.470631   3.549238   4.759262   5.149267
     9  C    4.307907   3.712481   4.774014   6.034494   6.437059
    10  C    3.397585   3.070929   4.046811   5.031459   5.248253
    11  C    5.135342   4.724668   5.790767   6.970487   7.269355
    12  O    4.655008   4.391833   5.410233   6.438519   6.630762
    13  Cl   5.291230   4.601835   5.552629   6.865380   7.368561
    14  O    6.272155   5.888570   6.950890   8.146443   8.441570
    15  C    4.018370   3.439312   3.918615   4.806253   5.241192
    16  C    4.779718   4.525938   4.927028   5.506947   5.714804
    17  O    5.102860   4.254518   4.580496   5.627471   6.299194
    18  C    3.804798   4.310657   3.801520   2.524134   1.510355
    19  C    4.877543   4.752102   4.879726   5.118260   5.226592
    20  C    5.983804   6.029982   6.142085   6.203443   6.145430
    21  C    6.878780   6.965764   7.251971   7.440008   7.346378
    22  C    6.796016   6.798934   7.270737   7.701277   7.690794
    23  C    5.846315   5.698664   6.243947   6.859387   6.979142
    24  C    8.167465   8.354548   8.603472   8.662995   8.467368
    25  C    8.972488   9.088506   9.143810   9.080255   8.945913
    26  C   10.220626  10.407235  10.462273  10.328945  10.121126
    27  C   10.725129  11.029979  11.232373  11.132708  10.811799
    28  C   10.070330  10.443063  10.806418  10.803686  10.427308
    29  C    8.800920   9.129510   9.535600   9.616739   9.290819
    30  H    2.897125   3.028229   4.103276   4.860643   4.790054
    31  H    3.497715   2.769331   2.968424   3.802830   4.367626
    32  H    1.075688   2.135491   3.369027   3.835291   3.387120
    33  H    3.365389   2.131799   1.075460   2.139722   3.391280
    34  H    3.836245   3.370525   2.126231   1.076299   2.139285
    35  H    2.127818   3.369989   3.836281   3.363247   2.136882
    36  H    3.093738   2.072792   2.832653   4.119180   4.743562
    37  H    5.746611   5.007056   5.460196   6.507008   7.096807
    38  H    4.036921   4.817073   4.553781   3.394897   2.154787
    39  H    4.324913   4.794542   4.247016   2.993360   2.151993
    40  H    4.521286   4.815640   4.068961   2.713623   2.154521
    41  H    4.385505   4.190272   4.081426   4.173615   4.361039
    42  H    6.347673   6.462042   6.413293   6.246981   6.111836
    43  H    7.686490   7.716619   8.263217   8.738386   8.704063
    44  H    6.149954   5.941224   6.623225   7.400541   7.568892
    45  H    8.763156   8.757305   8.665184   8.575290   8.562629
    46  H   10.911416  11.049197  10.987410  10.783728  10.621306
    47  H   11.738500  12.074197  12.263844  12.121088  11.766862
    48  H   10.654553  11.105633  11.561815  11.577651  11.129902
    49  H    8.429794   8.820420   9.374770   9.543407   9.171582
                    6          7          8          9         10
     6  C    0.000000
     7  N    3.713872   0.000000
     8  C    4.452425   1.349111   0.000000
     9  C    5.674303   2.413321   1.334286   0.000000
    10  C    4.519290   2.532384   1.515567   2.302771   0.000000
    11  C    6.434618   3.606215   2.286638   1.457390   2.291030
    12  O    5.812873   3.604472   2.303538   2.257875   1.411803
    13  Cl   6.661413   3.216991   2.737392   1.718546   3.991198
    14  O    7.574242   4.723326   3.436221   2.400363   3.409613
    15  C    4.875317   3.171567   2.557204   3.411992   1.540423
    16  C    5.359324   4.535616   3.898665   4.692035   2.545075
    17  O    6.048511   3.643902   2.968408   3.427484   2.405509
    18  C    2.525636   5.734251   6.632288   7.926206   6.610625
    19  C    5.096659   5.143153   4.810973   5.800774   3.581291
    20  C    6.026364   6.481361   6.091551   7.018831   4.759321
    21  C    7.057641   7.225178   6.601118   7.330488   5.142201
    22  C    7.237899   6.790203   5.950430   6.470281   4.459280
    23  C    6.484297   5.530634   4.634831   5.127388   3.176173
    24  C    8.210639   8.681954   8.063331   8.771783   6.590133
    25  C    8.886680   9.510363   9.010928   9.793845   7.593424
    26  C   10.063193  10.859124  10.347234  11.109894   8.910186
    27  C   10.601119  11.436703  10.825772  11.508157   9.341174
    28  C   10.049373  10.767763  10.060616  10.661948   8.554526
    29  C    8.870999   9.405952   8.680390   9.282742   7.172880
    30  H    3.890431   2.897274   2.160546   3.037393   1.081762
    31  H    4.215352   2.827319   2.709344   3.815950   2.128568
    32  H    2.137252   2.676677   2.995810   3.977215   3.238455
    33  H    3.835790   2.629886   3.723631   4.816995   4.342828
    34  H    3.362580   4.551281   5.633559   6.885845   5.898308
    35  H    1.076015   4.574723   5.165067   6.313542   5.105256
    36  H    4.308786   0.996126   1.992608   2.607189   3.396607
    37  H    6.737680   4.290602   3.378622   3.545550   2.659523
    38  H    2.664642   6.219216   7.068404   8.317668   7.043382
    39  H    3.092221   6.195331   6.962311   8.284841   6.720515
    40  H    3.352593   6.209587   7.236830   8.517267   7.356618
    41  H    4.451026   4.798435   4.755313   5.893573   3.780303
    42  H    6.158180   7.096211   6.865196   7.883770   5.615326
    43  H    8.179130   7.604037   6.650517   7.005138   5.167731
    44  H    6.967350   5.521642   4.437616   4.651711   3.069753
    45  H    8.652369   9.212672   8.815488   9.658775   7.476303
    46  H   10.684665  11.550689  11.110529  11.914295   9.711650
    47  H   11.569746  12.501708  11.892985  12.568118  10.406178
    48  H   10.654965  11.395216  10.630274  11.161593   9.123424
    49  H    8.601025   9.012592   8.200080   8.714351   6.693076
                   11         12         13         14         15
    11  C    0.000000
    12  O    1.354304   0.000000
    13  Cl   2.795038   3.905554   0.000000
    14  O    1.179752   2.222592   3.213024   0.000000
    15  C    3.361440   2.409597   4.991394   4.362122   0.000000
    16  C    4.306421   3.070320   6.355351   5.151604   1.520572
    17  O    3.315645   2.753716   4.785653   4.124041   1.395825
    18  C    8.701375   7.977342   8.871846   9.868531   6.498395
    19  C    5.589260   4.352070   7.429174   6.494850   2.512870
    20  C    6.639597   5.332353   8.688131   7.440324   3.798604
    21  C    6.679883   5.357173   9.033930   7.298762   4.334933
    22  C    5.629286   4.354951   8.157986   6.113820   3.819434
    23  C    4.345298   3.082472   6.805272   4.923759   2.551967
    24  C    8.051960   6.731499  10.480908   8.592276   5.825438
    25  C    9.161148   7.851963  11.483991   9.742233   6.640482
    26  C   10.423884   9.112624  12.808750  10.952699   8.007217
    27  C   10.710500   9.404427  13.220208  11.151337   8.620232
    28  C    9.788012   8.500007  12.369588  10.171206   8.017609
    29  C    8.430756   7.132053  10.992160   8.854769   6.653062
    30  H    3.016983   2.033085   4.662387   4.074122   2.162574
    31  H    4.121647   3.309155   5.242801   5.202829   1.080444
    32  H    4.692715   4.279736   4.967084   5.757096   4.220565
    33  H    5.875034   5.617032   5.445338   6.987391   4.016160
    34  H    7.829670   7.298150   7.653884   8.996662   5.470377
    35  H    6.961662   6.291404   7.321755   8.053629   5.581452
    36  H    3.997301   4.285910   2.822232   5.005580   4.045920
    37  H    3.053480   2.506194   4.917254   3.647666   1.935375
    38  H    9.069753   8.355542   9.239205  10.213187   7.116529
    39  H    8.921574   8.064489   9.379124  10.079907   6.422162
    40  H    9.396958   8.750725   9.331108  10.573082   7.174707
    41  H    5.945731   4.814089   7.422884   6.954944   2.698305
    42  H    7.608647   6.310543   9.525916   8.454998   4.642838
    43  H    5.989033   4.797853   8.656970   6.283590   4.675504
    44  H    3.646463   2.513853   6.269892   4.041802   2.771415
    45  H    9.140058   7.859029  11.312082   9.787327   6.362071
    46  H   11.282993   9.980160  13.597372  11.838362   8.711082
    47  H   11.750472  10.450098  14.280167  12.163799   9.695840
    48  H   10.219561   8.966520  12.853018  10.525838   8.728009
    49  H    7.793302   6.526574  10.406875   8.157686   6.385667
                   16         17         18         19         20
    16  C    0.000000
    17  O    2.439950   0.000000
    18  C    6.743680   7.590887   0.000000
    19  C    1.387043   3.486488   6.008740   0.000000
    20  C    2.414293   4.672553   6.685331   1.384934   0.000000
    21  C    2.814753   5.058326   7.938962   2.413057   1.389716
    22  C    2.410914   4.378248   8.500346   2.752775   2.384715
    23  C    1.392066   3.090072   7.979131   2.384278   2.760760
    24  C    4.305296   6.511290   8.875235   3.782963   2.508129
    25  C    5.159411   7.241020   9.200080   4.400553   3.060584
    26  C    6.513869   8.602424  10.256879   5.761976   4.400928
    27  C    7.100129   9.268113  10.965565   6.496169   5.141873
    28  C    6.512739   8.718486  10.701415   6.100316   4.836131
    29  C    5.158044   7.378581   9.693076   4.835086   3.658795
    30  H    2.680673   3.329738   6.063845   3.454413   4.505243
    31  H    2.115066   1.980907   5.619440   2.537211   3.921225
    32  H    4.938629   5.314848   4.661952   5.226836   6.269446
    33  H    5.154999   4.352808   4.662664   5.196579   6.503159
    34  H    6.115557   6.159810   2.721888   5.596712   6.614683
    35  H    5.881230   6.838088   2.726941   5.567383   6.322315
    36  H    5.469092   4.294048   6.235037   6.099743   7.451287
    37  H    2.602578   0.944154   8.383404   3.829831   4.849962
    38  H    7.315033   8.287679   1.083709   6.619404   7.216350
    39  H    6.442681   7.538493   1.086622   5.525754   6.032178
    40  H    7.520426   8.153994   1.084328   6.780141   7.493584
    41  H    2.136358   3.693474   5.106606   1.076611   2.128083
    42  H    3.380776   5.540462   6.413827   2.130155   1.075364
    43  H    3.378003   5.087692   9.518714   3.827839   3.362922
    44  H    2.145994   3.009877   8.681197   3.366131   3.835089
    45  H    4.968411   6.887938   8.803961   4.080651   2.850200
    46  H    7.256002   9.253396  10.663317   6.410908   5.078390
    47  H    8.175746  10.334480  11.848017   7.556312   6.193320
    48  H    7.254138   9.446669  11.407168   6.944365   5.738130
    49  H    4.966215   7.150486   9.674632   4.871908   3.900982
                   21         22         23         24         25
    21  C    0.000000
    22  C    1.393347   0.000000
    23  C    2.417995   1.381998   0.000000
    24  C    1.490544   2.510506   3.785202   0.000000
    25  C    2.507164   3.661770   4.839051   1.392512   0.000000
    26  C    3.781995   4.838940   6.103244   2.414489   1.384377
    27  C    4.285378   5.143917   6.496911   2.794834   2.401191
    28  C    3.781927   4.401926   5.760730   2.414443   2.764290
    29  C    2.507149   3.061296   4.399353   1.392554   2.392524
    30  H    4.918975   4.387658   3.301800   6.294595   7.346999
    31  H    4.758060   4.525485   3.403244   6.219434   6.888993
    32  H    6.985745   6.758595   5.804671   8.255562   9.191960
    33  H    7.593903   7.552291   6.465408   8.975846   9.454305
    34  H    7.919808   8.284394   7.499025   9.087228   9.354515
    35  H    7.274263   7.506450   6.881616   8.310099   9.023775
    36  H    8.194463   7.721873   6.430833   9.658750  10.476187
    37  H    4.972224   4.075335   2.794725   6.374718   7.183966
    38  H    8.390725   8.941977   8.466733   9.262889   9.654820
    39  H    7.313941   8.020818   7.647162   8.141860   8.358479
    40  H    8.795121   9.370054   8.810240   9.737586   9.975575
    41  H    3.380025   3.829303   3.364703   4.635258   5.070125
    42  H    2.137759   3.364575   3.835920   2.713969   2.852876
    43  H    2.139348   1.075249   2.125142   2.713705   3.907774
    44  H    3.380797   2.121573   1.074608   4.631417   5.735210
    45  H    2.708797   3.903505   4.877108   2.138886   1.075528
    46  H    4.638874   5.741053   6.948069   3.384933   2.132812
    47  H    5.360995   6.195132   7.556627   3.870451   3.376636
    48  H    4.638719   5.078348   6.407854   3.384828   3.840081
    49  H    2.709064   2.848917   4.076925   2.139129   3.369730
                   26         27         28         29         30
    26  C    0.000000
    27  C    1.384983   0.000000
    28  C    2.392909   1.385022   0.000000
    29  C    2.764380   2.401246   1.384344   0.000000
    30  H    8.617271   8.973168   8.142414   6.783922   0.000000
    31  H    8.264997   8.985305   8.491354   7.158986   2.542788
    32  H   10.412244  10.789238  10.012493   8.736617   2.599078
    33  H   10.798154  11.639194  11.263618   9.982560   4.643570
    34  H   10.577876  11.479030  11.270633  10.131135   5.804978
    35  H   10.117545  10.549124   9.953071   8.838959   4.306135
    36  H   11.831387  12.420972  11.750271  10.384532   3.819734
    37  H    8.505759   9.080745   8.463271   7.133707   3.584133
    38  H   10.651531  11.252719  10.924960   9.955553   6.373935
    39  H    9.364294  10.111368   9.939003   8.997511   6.157836
    40  H   11.030599  11.812084  11.618973  10.622399   6.910522
    41  H    6.403210   7.233422   6.941659   5.735045   3.643466
    42  H    4.084832   4.957753   4.880271   3.907555   5.283956
    43  H    4.880304   4.957084   4.083144   2.850862   5.120916
    44  H    6.939521   7.226365   6.391956   5.059148   3.380972
    45  H    2.131699   3.372201   3.839635   3.369587   7.313799
    46  H    1.075854   2.137612   3.370036   3.840195   9.450921
    47  H    2.139162   1.075617   2.139160   3.376648  10.021045
    48  H    3.370034   2.137666   1.075821   2.132671   8.666255
    49  H    3.839750   3.372167   2.131521   1.075517   6.261779
                   31         32         33         34         35
    31  H    0.000000
    32  H    3.962097   0.000000
    33  H    3.064318   4.254715   0.000000
    34  H    4.409674   4.911416   2.453282   0.000000
    35  H    5.038366   2.446881   4.911701   4.259452   0.000000
    36  H    3.701284   3.284129   2.835046   4.887267   5.168137
    37  H    2.782942   5.817055   5.269946   7.074815   7.453073
    38  H    6.324712   4.713795   5.495388   3.725381   2.445372
    39  H    5.566876   5.164280   5.046562   3.063033   3.238672
    40  H    6.219156   5.440092   4.773666   2.539781   3.658565
    41  H    2.267063   4.934796   4.414066   4.571059   5.022913
    42  H    4.568743   6.733012   6.811877   6.540800   6.396054
    43  H    5.478277   7.550575   8.531617   9.343767   8.395969
    44  H    3.794016   5.978732   6.785790   8.094271   7.379143
    45  H    6.490979   9.098646   8.896696   8.749096   8.891180
    46  H    8.887792  11.180160  11.279443  10.934310  10.767026
    47  H   10.054089  11.795990  12.679407  12.444585  11.476257
    48  H    9.258910  10.504682  12.060384  12.099533  10.482819
    49  H    6.988202   8.243327   9.862368  10.157094   8.527759
                   36         37         38         39         40
    36  H    0.000000
    37  H    4.916213   0.000000
    38  H    6.703733   9.031804   0.000000
    39  H    6.806592   8.304464   1.752295   0.000000
    40  H    6.586890   8.998132   1.754488   1.751916   0.000000
    41  H    5.720620   4.259531   5.812557   4.625863   5.807389
    42  H    8.056811   5.809176   6.944987   5.626622   7.183935
    43  H    8.508588   4.618912   9.917116   9.042961  10.409161
    44  H    6.342827   2.440228   9.143076   8.447562   9.504905
    45  H   10.153482   6.926509   9.358311   7.942118   9.498209
    46  H   12.510618   9.203676  11.098721   9.718122  11.368032
    47  H   13.487686  10.134930  12.103957  10.965651  12.684684
    48  H   12.371762   9.136542  11.553741  10.678576  12.360463
    49  H    9.977997   6.844981   9.874896   9.074796  10.649727
                   41         42         43         44         45
    41  H    0.000000
    42  H    2.437280   0.000000
    43  H    4.904395   4.259991   0.000000
    44  H    4.265087   4.910234   2.426519   0.000000
    45  H    4.606794   2.503514   4.341001   5.826556   0.000000
    46  H    6.945044   4.619972   5.831180   7.809419   2.448361
    47  H    8.267719   5.947197   5.946157   8.259774   4.260388
    48  H    7.809572   5.831204   4.617101   6.930068   4.915448
    49  H    5.822559   4.341355   2.498866   4.590599   4.262576
                   46         47         48         49
    46  H    0.000000
    47  H    2.466101   0.000000
    48  H    4.262498   2.466138   0.000000
    49  H    4.915594   4.260258   2.447958   0.000000
 Stoichiometry    C24H20ClNO3
 Framework group  C1[X(C24H20ClNO3)]
 Deg. of freedom   141
 Full point group                 C1      NOp   1
 Largest Abelian subgroup         C1      NOp   1
 Largest concise Abelian subgroup C1      NOp   1
                         Standard orientation:                         
 ---------------------------------------------------------------------
 Center     Atomic      Atomic             Coordinates (Angstroms)
 Number     Number       Type             X           Y           Z
 ---------------------------------------------------------------------
      1          6           0        2.724739    2.081477   -1.273122
      2          6           0        3.128597    1.662780   -0.015572
      3          6           0        3.063052    2.550461    1.048977
      4          6           0        2.592577    3.835889    0.853458
      5          6           0        2.161133    4.262755   -0.398837
      6          6           0        2.234553    3.364638   -1.455079
      7          7           0        3.649631    0.354975    0.197896
      8          6           0        3.031674   -0.804152   -0.109762
      9          6           0        3.573541   -2.015621   -0.247752
     10          6           0        1.534344   -0.946914   -0.295679
     11          6           0        2.532349   -2.995957   -0.528547
     12          8           0        1.362189   -2.316922   -0.590007
     13         17           0        5.236031   -2.427145   -0.105706
     14          8           0        2.596427   -4.162457   -0.692823
     15          6           0        0.719828   -0.589167    0.961892
     16          6           0       -0.774038   -0.518954    0.686986
     17          8           0        1.053639   -1.452864    2.006366
     18          6           0        1.613103    5.656472   -0.594769
     19          6           0       -1.441979    0.686468    0.844149
     20          6           0       -2.803998    0.785929    0.613816
     21          6           0       -3.543522   -0.324060    0.223509
     22          6           0       -2.871110   -1.534422    0.067616
     23          6           0       -1.510917   -1.631938    0.291860
     24          6           0       -5.010240   -0.223425   -0.022118
     25          6           0       -5.836622    0.459580    0.866525
     26          6           0       -7.198744    0.554010    0.638036
     27          6           0       -7.760145   -0.033297   -0.483604
     28          6           0       -6.948723   -0.715910   -1.374625
     29          6           0       -5.586654   -0.810018   -1.145889
     30          1           0        1.182820   -0.367564   -1.138883
     31          1           0        1.039389    0.391475    1.283731
     32          1           0        2.806997    1.413033   -2.111883
     33          1           0        3.378474    2.227045    2.024951
     34          1           0        2.553829    4.513044    1.689149
     35          1           0        1.921978    3.670806   -2.438118
     36          1           0        4.626755    0.285628    0.378688
     37          1           0        0.717972   -2.317932    1.831974
     38          1           0        1.689924    5.967146   -1.630146
     39          1           0        0.564676    5.703256   -0.313059
     40          1           0        2.148443    6.377531    0.012892
     41          1           0       -0.896133    1.563850    1.146382
     42          1           0       -3.290393    1.738509    0.725255
     43          1           0       -3.420206   -2.413809   -0.217573
     44          1           0       -1.026919   -2.580285    0.146377
     45          1           0       -5.414606    0.901010    1.751851
     46          1           0       -7.821549    1.079518    1.340473
     47          1           0       -8.818547    0.039372   -0.660963
     48          1           0       -7.374059   -1.170531   -2.252008
     49          1           0       -4.963622   -1.326247   -1.854462
 ---------------------------------------------------------------------
 Rotational constants (GHZ):      0.2086151      0.0807805      0.0623414
 Leave Link  202 at Thu Jul 04 13:58:12 2019, MaxMem=   209715200 cpu:         0.0
 (Enter C:\G09W\l301.exe)
 Standard basis: 6-311++G(d,p) (5D, 7F)
 Ernie: Thresh=  0.10000D-02 Tol=  0.10000D-05 Strict=F.
 There are   815 symmetry adapted cartesian basis functions of A   symmetry.
 There are   786 symmetry adapted basis functions of A   symmetry.
   786 basis functions,  1241 primitive gaussians,   815 cartesian basis functions
   106 alpha electrons      106 beta electrons
       nuclear repulsion energy      2702.4912123477 Hartrees.
 IExCor=  402 DFT=T Ex+Corr=B3LYP ExCW=0 ScaHFX=  0.200000
 ScaDFX=  0.800000  0.720000  1.000000  0.810000 ScalE2=  1.000000  1.000000
 IRadAn=      0 IRanWt=     -1 IRanGd=            0 ICorTp=0 IEmpDi=  4
 NAtoms=   49 NActive=   49 NUniq=   49 SFac= 1.00D+00 NAtFMM=   60 NAOKFM=F Big=F
 Integral buffers will be    262144 words long.
 Raffenetti 2 integral format.
 Two-electron integral symmetry is turned on.
 Leave Link  301 at Thu Jul 04 13:58:12 2019, MaxMem=   209715200 cpu:         0.0
 (Enter C:\G09W\l302.exe)
 NPDir=0 NMtPBC=     1 NCelOv=     1 NCel=       1 NClECP=     1 NCelD=      1
         NCelK=      1 NCelE2=     1 NClLst=     1 CellRange=     0.0.
 One-electron integrals computed using PRISM.
 NBasis=   786 RedAO= T EigKep=  1.17D-06  NBF=   786
 NBsUse=   779 1.00D-06 EigRej=  8.71D-07 NBFU=   779
 Precomputing XC quadrature grid using
 IXCGrd= 4 IRadAn=           0 IRanWt=          -1 IRanGd=           0 AccXCQ= 0.00D+00.
 Generated NRdTot=       0 NPtTot=           0 NUsed=           0 NTot=          16
 NSgBfM=   786   786   787   787   787 MxSgAt=    49 MxSgA2=    49.
 Leave Link  302 at Thu Jul 04 13:58:18 2019, MaxMem=   209715200 cpu:         6.0
 (Enter C:\G09W\l303.exe)
 DipDrv:  MaxL=1.
 Leave Link  303 at Thu Jul 04 13:58:19 2019, MaxMem=   209715200 cpu:         1.0
 (Enter C:\G09W\l401.exe)
 ExpMin= 3.60D-02 ExpMax= 1.06D+05 ExpMxC= 3.62D+03 IAcc=3 IRadAn=         5 AccDes= 0.00D+00
 Harris functional with IExCor=  402 and IRadAn=       5 diagonalized for initial guess.
 HarFok:  IExCor=  402 AccDes= 0.00D+00 IRadAn=         5 IDoV= 1 UseB2=F ITyADJ=14
 ICtDFT=  3500011 ScaDFX=  1.000000  1.000000  1.000000  1.000000
 FoFCou: FMM=F IPFlag=           0 FMFlag=      100000 FMFlg1=           0
         NFxFlg=           0 DoJE=T BraDBF=F KetDBF=T FulRan=T
         wScrn=  0.000000 ICntrl=     500 IOpCl=  0 I1Cent=   200000004 NGrid=           0
         NMat0=    1 NMatS0=      1 NMatT0=    0 NMatD0=    1 NMtDS0=    0 NMtDT0=    0
 Petite list used in FoFCou.
 Harris En= -1667.58771919133    
 JPrj=0 DoOrth=F DoCkMO=F.
 Leave Link  401 at Thu Jul 04 13:59:17 2019, MaxMem=   209715200 cpu:        58.0
 (Enter C:\G09W\l502.exe)
 Closed shell SCF:
 Using DIIS extrapolation, IDIIS=  1040.
 Integral symmetry usage will be decided dynamically.
 IVT=     2021069 IEndB=     2021069 NGot=   209715200 MDV=   208375812
 LenX=   208375812 LenY=   207710772
 Requested convergence on RMS density matrix=1.00D-08 within 128 cycles.
 Requested convergence on MAX density matrix=1.00D-06.
 Requested convergence on             energy=1.00D-06.
 No special actions if energy rises.
 Fock matrices will be formed incrementally for  20 cycles.

 Cycle   1  Pass 1  IDiag  1:
 FoFJK:  IHMeth= 1 ICntrl=       0 DoSepK=F KAlg= 0 I1Cent=   0 FoldK=F
 IRaf= 730000000 NMat=   1 IRICut=       1 DoRegI=T DoRafI=F ISym2E= 0.
 FoFCou: FMM=F IPFlag=           0 FMFlag=      100000 FMFlg1=           0
         NFxFlg=           0 DoJE=F BraDBF=F KetDBF=F FulRan=T
         wScrn=  0.000000 ICntrl=       0 IOpCl=  0 I1Cent=           0 NGrid=           0
         NMat0=    1 NMatS0=      1 NMatT0=    0 NMatD0=    1 NMtDS0=    0 NMtDT0=    0
 Symmetry not used in FoFCou.
 E= -1666.86392253471    
 DIIS: error= 2.12D-02 at cycle   1 NSaved=   1.
 NSaved= 1 IEnMin= 1 EnMin= -1666.86392253471     IErMin= 1 ErrMin= 2.12D-02
 ErrMax= 2.12D-02  0.00D+00 EMaxC= 1.00D-01 BMatC= 8.29D-01 BMatP= 8.29D-01
 IDIUse=3 WtCom= 7.88D-01 WtEn= 2.12D-01
 Coeff-Com:  0.100D+01
 Coeff-En:   0.100D+01
 Coeff:      0.100D+01
 Gap=     0.339 Goal=   None    Shift=    0.000
 GapD=    0.339 DampG=1.000 DampE=0.500 DampFc=0.5000 IDamp=-1.
 Damping current iteration by 5.00D-01
 RMSDP=2.97D-02 MaxDP=2.62D+00              OVMax= 2.20D-01

 Cycle   2  Pass 1  IDiag  1:
 RMSU=  1.48D-02    CP:  9.95D-01
 E= -1667.13917086388     Delta-E=       -0.275248329172 Rises=F Damp=T
 DIIS: error= 6.65D-03 at cycle   2 NSaved=   2.
 NSaved= 2 IEnMin= 2 EnMin= -1667.13917086388     IErMin= 2 ErrMin= 6.65D-03
 ErrMax= 6.65D-03  0.00D+00 EMaxC= 1.00D-01 BMatC= 7.71D-02 BMatP= 8.29D-01
 IDIUse=3 WtCom= 9.34D-01 WtEn= 6.65D-02
 Coeff-Com:  0.917D-01 0.908D+00
 Coeff-En:   0.193D+00 0.807D+00
 Coeff:      0.984D-01 0.902D+00
 Gap=     0.237 Goal=   None    Shift=    0.000
 RMSDP=1.21D-02 MaxDP=1.90D+00 DE=-2.75D-01 OVMax= 1.46D-01

 Cycle   3  Pass 1  IDiag  1:
 RMSU=  7.09D-03    CP:  9.19D-01  3.93D-01
 E= -1667.49158398814     Delta-E=       -0.352413124254 Rises=F Damp=F
 DIIS: error= 1.16D-02 at cycle   3 NSaved=   3.
 NSaved= 3 IEnMin= 3 EnMin= -1667.49158398814     IErMin= 2 ErrMin= 6.65D-03
 ErrMax= 1.16D-02  0.00D+00 EMaxC= 1.00D-01 BMatC= 1.02D-01 BMatP= 7.71D-02
 IDIUse=2 WtCom= 0.00D+00 WtEn= 1.00D+00
 Coeff-En:   0.000D+00 0.000D+00 0.100D+01
 Coeff:      0.000D+00 0.000D+00 0.100D+01
 Gap=     0.216 Goal=   None    Shift=    0.000
 RMSDP=8.30D-03 MaxDP=5.07D-01 DE=-3.52D-01 OVMax= 2.97D-01

 Cycle   4  Pass 1  IDiag  1:
 RMSU=  7.23D-03    CP:  9.44D-01  6.25D-01  1.26D+00
 E= -1667.08375809191     Delta-E=        0.407825896231 Rises=F Damp=F
 DIIS: error= 2.46D-02 at cycle   4 NSaved=   4.
 NSaved= 4 IEnMin= 3 EnMin= -1667.49158398814     IErMin= 2 ErrMin= 6.65D-03
 ErrMax= 2.46D-02  0.00D+00 EMaxC= 1.00D-01 BMatC= 6.06D-01 BMatP= 7.71D-02
 IDIUse=2 WtCom= 0.00D+00 WtEn= 1.00D+00
 Coeff-En:   0.000D+00 0.000D+00 0.807D+00 0.193D+00
 Coeff:      0.000D+00 0.000D+00 0.807D+00 0.193D+00
 Gap=     0.199 Goal=   None    Shift=    0.000
 RMSDP=5.04D-03 MaxDP=4.97D-01 DE= 4.08D-01 OVMax= 1.34D-01

 Cycle   5  Pass 1  IDiag  1:
 RMSU=  1.56D-03    CP:  8.99D-01  5.31D-01  1.06D+00  4.78D-01
 E= -1667.53064807559     Delta-E=       -0.446889983681 Rises=F Damp=F
 DIIS: error= 7.16D-03 at cycle   5 NSaved=   5.
 NSaved= 5 IEnMin= 5 EnMin= -1667.53064807559     IErMin= 2 ErrMin= 6.65D-03
 ErrMax= 7.16D-03  0.00D+00 EMaxC= 1.00D-01 BMatC= 5.07D-02 BMatP= 7.71D-02
 IDIUse=3 WtCom= 9.28D-01 WtEn= 7.16D-02
 Coeff-Com:  0.746D-02 0.401D-02 0.347D+00-0.611D-01 0.702D+00
 Coeff-En:   0.000D+00 0.000D+00 0.372D+00 0.000D+00 0.628D+00
 Coeff:      0.693D-02 0.373D-02 0.349D+00-0.567D-01 0.697D+00
 Gap=     0.187 Goal=   None    Shift=    0.000
 RMSDP=1.92D-03 MaxDP=1.28D-01 DE=-4.47D-01 OVMax= 4.04D-02

 Cycle   6  Pass 1  IDiag  1:
 RMSU=  8.46D-04    CP:  8.87D-01  4.89D-01  1.01D+00  2.82D-01  8.06D-01
 E= -1667.56868850255     Delta-E=       -0.038040426959 Rises=F Damp=F
 DIIS: error= 7.16D-04 at cycle   6 NSaved=   6.
 NSaved= 6 IEnMin= 6 EnMin= -1667.56868850255     IErMin= 6 ErrMin= 7.16D-04
 ErrMax= 7.16D-04  0.00D+00 EMaxC= 1.00D-01 BMatC= 5.01D-04 BMatP= 5.07D-02
 IDIUse=3 WtCom= 9.93D-01 WtEn= 7.16D-03
 Coeff-Com:  0.397D-02-0.218D-02 0.174D+00-0.553D-01 0.437D+00 0.442D+00
 Coeff-En:   0.000D+00 0.000D+00 0.000D+00 0.000D+00 0.000D+00 0.100D+01
 Coeff:      0.394D-02-0.216D-02 0.173D+00-0.549D-01 0.434D+00 0.446D+00
 Gap=     0.184 Goal=   None    Shift=    0.000
 RMSDP=4.52D-04 MaxDP=3.82D-02 DE=-3.80D-02 OVMax= 4.97D-03

 Cycle   7  Pass 1  IDiag  1:
 RMSU=  1.21D-04    CP:  8.91D-01  4.82D-01  1.03D+00  2.94D-01  8.25D-01
                    CP:  5.87D-01
 E= -1667.56909227157     Delta-E=       -0.000403769021 Rises=F Damp=F
 DIIS: error= 2.13D-04 at cycle   7 NSaved=   7.
 NSaved= 7 IEnMin= 7 EnMin= -1667.56909227157     IErMin= 7 ErrMin= 2.13D-04
 ErrMax= 2.13D-04  0.00D+00 EMaxC= 1.00D-01 BMatC= 2.79D-05 BMatP= 5.01D-04
 IDIUse=3 WtCom= 9.98D-01 WtEn= 2.13D-03
 Coeff-Com:  0.151D-02-0.204D-02 0.511D-01-0.187D-01 0.125D+00 0.162D+00
 Coeff-Com:  0.681D+00
 Coeff-En:   0.000D+00 0.000D+00 0.000D+00 0.000D+00 0.000D+00 0.000D+00
 Coeff-En:   0.100D+01
 Coeff:      0.150D-02-0.204D-02 0.510D-01-0.187D-01 0.125D+00 0.161D+00
 Coeff:      0.682D+00
 Gap=     0.184 Goal=   None    Shift=    0.000
 RMSDP=8.47D-05 MaxDP=8.20D-03 DE=-4.04D-04 OVMax= 1.78D-03

 Cycle   8  Pass 1  IDiag  1:
 RMSU=  5.67D-05    CP:  8.91D-01  4.83D-01  1.02D+00  2.88D-01  8.28D-01
                    CP:  5.70D-01  7.31D-01
 E= -1667.56911172381     Delta-E=       -0.000019452239 Rises=F Damp=F
 DIIS: error= 1.31D-04 at cycle   8 NSaved=   8.
 NSaved= 8 IEnMin= 8 EnMin= -1667.56911172381     IErMin= 8 ErrMin= 1.31D-04
 ErrMax= 1.31D-04  0.00D+00 EMaxC= 1.00D-01 BMatC= 7.71D-06 BMatP= 2.79D-05
 IDIUse=3 WtCom= 9.99D-01 WtEn= 1.31D-03
 Coeff-Com:  0.573D-03-0.131D-02 0.109D-01-0.425D-02 0.201D-01 0.396D-01
 Coeff-Com:  0.467D+00 0.468D+00
 Coeff-En:   0.000D+00 0.000D+00 0.000D+00 0.000D+00 0.000D+00 0.000D+00
 Coeff-En:   0.150D+00 0.850D+00
 Coeff:      0.572D-03-0.130D-02 0.108D-01-0.424D-02 0.201D-01 0.396D-01
 Coeff:      0.466D+00 0.468D+00
 Gap=     0.184 Goal=   None    Shift=    0.000
 RMSDP=4.09D-05 MaxDP=4.91D-03 DE=-1.95D-05 OVMax= 6.54D-04

 Cycle   9  Pass 1  IDiag  1:
 RMSU=  2.31D-05    CP:  8.91D-01  4.81D-01  1.02D+00  2.88D-01  8.29D-01
                    CP:  5.73D-01  8.26D-01  6.54D-01
 E= -1667.56911881436     Delta-E=       -0.000007090556 Rises=F Damp=F
 DIIS: error= 1.98D-05 at cycle   9 NSaved=   9.
 NSaved= 9 IEnMin= 9 EnMin= -1667.56911881436     IErMin= 9 ErrMin= 1.98D-05
 ErrMax= 1.98D-05  0.00D+00 EMaxC= 1.00D-01 BMatC= 2.71D-07 BMatP= 7.71D-06
 IDIUse=1 WtCom= 1.00D+00 WtEn= 0.00D+00
 Coeff-Com:  0.238D-03-0.639D-03 0.263D-02-0.930D-03 0.211D-02 0.105D-01
 Coeff-Com:  0.212D+00 0.256D+00 0.518D+00
 Coeff:      0.238D-03-0.639D-03 0.263D-02-0.930D-03 0.211D-02 0.105D-01
 Coeff:      0.212D+00 0.256D+00 0.518D+00
 Gap=     0.184 Goal=   None    Shift=    0.000
 RMSDP=9.78D-06 MaxDP=1.30D-03 DE=-7.09D-06 OVMax= 1.67D-04

 Cycle  10  Pass 1  IDiag  1:
 RMSU=  6.88D-06    CP:  8.91D-01  4.81D-01  1.02D+00  2.88D-01  8.28D-01
                    CP:  5.74D-01  8.26D-01  6.95D-01  7.83D-01
 E= -1667.56911904350     Delta-E=       -0.000000229140 Rises=F Damp=F
 DIIS: error= 7.96D-06 at cycle  10 NSaved=  10.
 NSaved=10 IEnMin=10 EnMin= -1667.56911904350     IErMin=10 ErrMin= 7.96D-06
 ErrMax= 7.96D-06  0.00D+00 EMaxC= 1.00D-01 BMatC= 4.40D-08 BMatP= 2.71D-07
 IDIUse=1 WtCom= 1.00D+00 WtEn= 0.00D+00
 Coeff-Com:  0.566D-04-0.169D-03-0.222D-04 0.491D-04-0.138D-02 0.108D-02
 Coeff-Com:  0.490D-01 0.748D-01 0.317D+00 0.560D+00
 Coeff:      0.566D-04-0.169D-03-0.222D-04 0.491D-04-0.138D-02 0.108D-02
 Coeff:      0.490D-01 0.748D-01 0.317D+00 0.560D+00
 Gap=     0.184 Goal=   None    Shift=    0.000
 RMSDP=5.32D-06 MaxDP=7.11D-04 DE=-2.29D-07 OVMax= 7.65D-05

 Cycle  11  Pass 1  IDiag  1:
 RMSU=  2.11D-06    CP:  8.91D-01  4.81D-01  1.02D+00  2.88D-01  8.27D-01
                    CP:  5.75D-01  8.35D-01  6.66D-01  7.38D-01  6.96D-01
 E= -1667.56911908481     Delta-E=       -0.000000041310 Rises=F Damp=F
 DIIS: error= 1.75D-06 at cycle  11 NSaved=  11.
 NSaved=11 IEnMin=11 EnMin= -1667.56911908481     IErMin=11 ErrMin= 1.75D-06
 ErrMax= 1.75D-06  0.00D+00 EMaxC= 1.00D-01 BMatC= 4.31D-09 BMatP= 4.40D-08
 IDIUse=1 WtCom= 1.00D+00 WtEn= 0.00D+00
 Coeff-Com:  0.149D-04-0.533D-04-0.165D-03 0.783D-04-0.748D-03 0.240D-03
 Coeff-Com:  0.116D-01 0.226D-01 0.139D+00 0.319D+00 0.509D+00
 Coeff:      0.149D-04-0.533D-04-0.165D-03 0.783D-04-0.748D-03 0.240D-03
 Coeff:      0.116D-01 0.226D-01 0.139D+00 0.319D+00 0.509D+00
 Gap=     0.184 Goal=   None    Shift=    0.000
 RMSDP=1.20D-06 MaxDP=1.22D-04 DE=-4.13D-08 OVMax= 1.44D-05

 Cycle  12  Pass 1  IDiag  1:
 RMSU=  4.26D-07    CP:  8.91D-01  4.81D-01  1.02D+00  2.88D-01  8.27D-01
                    CP:  5.75D-01  8.33D-01  6.73D-01  7.50D-01  7.04D-01
                    CP:  7.38D-01
 E= -1667.56911908927     Delta-E=       -0.000000004460 Rises=F Damp=F
 DIIS: error= 4.28D-07 at cycle  12 NSaved=  12.
 NSaved=12 IEnMin=12 EnMin= -1667.56911908927     IErMin=12 ErrMin= 4.28D-07
 ErrMax= 4.28D-07  0.00D+00 EMaxC= 1.00D-01 BMatC= 2.56D-10 BMatP= 4.31D-09
 IDIUse=1 WtCom= 1.00D+00 WtEn= 0.00D+00
 Coeff-Com:  0.600D-07-0.562D-05-0.107D-03 0.407D-04-0.280D-03 0.482D-04
 Coeff-Com:  0.978D-03 0.377D-02 0.344D-01 0.934D-01 0.226D+00 0.642D+00
 Coeff:      0.600D-07-0.562D-05-0.107D-03 0.407D-04-0.280D-03 0.482D-04
 Coeff:      0.978D-03 0.377D-02 0.344D-01 0.934D-01 0.226D+00 0.642D+00
 Gap=     0.184 Goal=   None    Shift=    0.000
 RMSDP=4.58D-07 MaxDP=4.40D-05 DE=-4.46D-09 OVMax= 3.98D-06

 Cycle  13  Pass 1  IDiag  1:
 RMSU=  1.89D-07    CP:  8.91D-01  4.81D-01  1.02D+00  2.88D-01  8.27D-01
                    CP:  5.75D-01  8.33D-01  6.75D-01  7.64D-01  7.09D-01
                    CP:  7.13D-01  7.75D-01
 E= -1667.56911908936     Delta-E=       -0.000000000082 Rises=F Damp=F
 DIIS: error= 1.74D-07 at cycle  13 NSaved=  13.
 NSaved=13 IEnMin=13 EnMin= -1667.56911908936     IErMin=13 ErrMin= 1.74D-07
 ErrMax= 1.74D-07  0.00D+00 EMaxC= 1.00D-01 BMatC= 4.14D-11 BMatP= 2.56D-10
 IDIUse=1 WtCom= 1.00D+00 WtEn= 0.00D+00
 Coeff-Com: -0.158D-05 0.194D-05-0.499D-04 0.173D-04-0.976D-04 0.198D-04
 Coeff-Com: -0.406D-03 0.200D-03 0.659D-02 0.229D-01 0.774D-01 0.343D+00
 Coeff-Com:  0.550D+00
 Coeff:     -0.158D-05 0.194D-05-0.499D-04 0.173D-04-0.976D-04 0.198D-04
 Coeff:     -0.406D-03 0.200D-03 0.659D-02 0.229D-01 0.774D-01 0.343D+00
 Coeff:      0.550D+00
 Gap=     0.184 Goal=   None    Shift=    0.000
 RMSDP=1.20D-07 MaxDP=1.39D-05 DE=-8.19D-11 OVMax= 2.39D-06

 Cycle  14  Pass 1  IDiag  1:
 RMSU=  6.96D-08    CP:  8.91D-01  4.81D-01  1.02D+00  2.88D-01  8.27D-01
                    CP:  5.75D-01  8.33D-01  6.76D-01  7.62D-01  7.10D-01
                    CP:  7.20D-01  8.47D-01  7.98D-01
 E= -1667.56911908994     Delta-E=       -0.000000000587 Rises=F Damp=F
 DIIS: error= 8.29D-08 at cycle  14 NSaved=  14.
 NSaved=14 IEnMin=14 EnMin= -1667.56911908994     IErMin=14 ErrMin= 8.29D-08
 ErrMax= 8.29D-08  0.00D+00 EMaxC= 1.00D-01 BMatC= 8.23D-12 BMatP= 4.14D-11
 IDIUse=1 WtCom= 1.00D+00 WtEn= 0.00D+00
 Coeff-Com: -0.106D-05 0.227D-05-0.102D-04 0.245D-05-0.307D-05 0.172D-04
 Coeff-Com: -0.395D-03-0.574D-03-0.266D-02-0.400D-02 0.484D-02 0.859D-01
 Coeff-Com:  0.346D+00 0.571D+00
 Coeff:     -0.106D-05 0.227D-05-0.102D-04 0.245D-05-0.307D-05 0.172D-04
 Coeff:     -0.395D-03-0.574D-03-0.266D-02-0.400D-02 0.484D-02 0.859D-01
 Coeff:      0.346D+00 0.571D+00
 Gap=     0.184 Goal=   None    Shift=    0.000
 RMSDP=6.43D-08 MaxDP=7.37D-06 DE=-5.87D-10 OVMax= 8.59D-07

 Cycle  15  Pass 1  IDiag  1:
 RMSU=  2.05D-08    CP:  8.91D-01  4.81D-01  1.02D+00  2.88D-01  8.27D-01
                    CP:  5.75D-01  8.33D-01  6.75D-01  7.61D-01  7.09D-01
                    CP:  7.29D-01  8.34D-01  7.94D-01  6.39D-01
 E= -1667.56911908942     Delta-E=        0.000000000527 Rises=F Damp=F
 DIIS: error= 2.30D-08 at cycle  15 NSaved=  15.
 NSaved=15 IEnMin=14 EnMin= -1667.56911908994     IErMin=15 ErrMin= 2.30D-08
 ErrMax= 2.30D-08  0.00D+00 EMaxC= 1.00D-01 BMatC= 5.21D-13 BMatP= 8.23D-12
 IDIUse=1 WtCom= 1.00D+00 WtEn= 0.00D+00
 Coeff-Com: -0.456D-06 0.972D-06-0.282D-05 0.601D-06 0.224D-05 0.545D-05
 Coeff-Com: -0.176D-03-0.310D-03-0.184D-02-0.379D-02-0.330D-02 0.165D-01
 Coeff-Com:  0.140D+00 0.311D+00 0.542D+00
 Coeff:     -0.456D-06 0.972D-06-0.282D-05 0.601D-06 0.224D-05 0.545D-05
 Coeff:     -0.176D-03-0.310D-03-0.184D-02-0.379D-02-0.330D-02 0.165D-01
 Coeff:      0.140D+00 0.311D+00 0.542D+00
 Gap=     0.184 Goal=   None    Shift=    0.000
 RMSDP=1.18D-08 MaxDP=1.09D-06 DE= 5.27D-10 OVMax= 2.69D-07

 Cycle  16  Pass 1  IDiag  1:
 RMSU=  5.28D-09    CP:  8.91D-01  4.81D-01  1.02D+00  2.88D-01  8.27D-01
                    CP:  5.75D-01  8.33D-01  6.75D-01  7.61D-01  7.09D-01
                    CP:  7.29D-01  8.40D-01  8.08D-01  6.94D-01  8.02D-01
 E= -1667.56911908946     Delta-E=       -0.000000000040 Rises=F Damp=F
 DIIS: error= 9.00D-09 at cycle  16 NSaved=  16.
 NSaved=16 IEnMin=14 EnMin= -1667.56911908994     IErMin=16 ErrMin= 9.00D-09
 ErrMax= 9.00D-09  0.00D+00 EMaxC= 1.00D-01 BMatC= 7.49D-14 BMatP= 5.21D-13
 IDIUse=1 WtCom= 1.00D+00 WtEn= 0.00D+00
 Coeff-Com: -0.135D-06 0.313D-06-0.619D-07-0.121D-06 0.285D-05 0.294D-05
 Coeff-Com: -0.537D-04-0.119D-03-0.830D-03-0.192D-02-0.263D-02-0.611D-03
 Coeff-Com:  0.415D-01 0.115D+00 0.319D+00 0.531D+00
 Coeff:     -0.135D-06 0.313D-06-0.619D-07-0.121D-06 0.285D-05 0.294D-05
 Coeff:     -0.537D-04-0.119D-03-0.830D-03-0.192D-02-0.263D-02-0.611D-03
 Coeff:      0.415D-01 0.115D+00 0.319D+00 0.531D+00
 Gap=     0.184 Goal=   None    Shift=    0.000
 RMSDP=9.24D-09 MaxDP=1.45D-06 DE=-4.00D-11 OVMax= 1.00D-07

 Cycle  17  Pass 1  IDiag  1:
 RMSU=  2.31D-09    CP:  8.91D-01  4.81D-01  1.02D+00  2.88D-01  8.27D-01
                    CP:  5.75D-01  8.33D-01  6.75D-01  7.61D-01  7.09D-01
                    CP:  7.28D-01  8.41D-01  8.13D-01  6.95D-01  7.86D-01
                    CP:  5.99D-01
 E= -1667.56911908919     Delta-E=        0.000000000264 Rises=F Damp=F
 DIIS: error= 2.85D-09 at cycle  17 NSaved=  17.
 NSaved=17 IEnMin=14 EnMin= -1667.56911908994     IErMin=17 ErrMin= 2.85D-09
 ErrMax= 2.85D-09  0.00D+00 EMaxC= 1.00D-01 BMatC= 9.69D-15 BMatP= 7.49D-14
 IDIUse=1 WtCom= 1.00D+00 WtEn= 0.00D+00
 Coeff-Com: -0.314D-07 0.782D-07 0.132D-06-0.750D-07 0.111D-05 0.121D-05
 Coeff-Com: -0.142D-04-0.371D-04-0.273D-03-0.693D-03-0.109D-02-0.190D-02
 Coeff-Com:  0.107D-01 0.373D-01 0.131D+00 0.321D+00 0.504D+00
 Coeff:     -0.314D-07 0.782D-07 0.132D-06-0.750D-07 0.111D-05 0.121D-05
 Coeff:     -0.142D-04-0.371D-04-0.273D-03-0.693D-03-0.109D-02-0.190D-02
 Coeff:      0.107D-01 0.373D-01 0.131D+00 0.321D+00 0.504D+00
 Gap=     0.184 Goal=   None    Shift=    0.000
 RMSDP=1.68D-09 MaxDP=1.27D-07 DE= 2.64D-10 OVMax= 3.06D-08

 SCF Done:  E(RB3LYP) =  -1667.56911909     A.U. after   17 cycles
            NFock= 17  Conv=0.17D-08     -V/T= 2.0031
 KE= 1.662448213488D+03 PE=-9.309692881434D+03 EE= 3.277184336509D+03
 Leave Link  502 at Thu Jul 04 14:48:30 2019, MaxMem=   209715200 cpu:      2953.0
 (Enter C:\G09W\l601.exe)
 Copying SCF densities to generalized density rwf, IOpCl= 0 IROHF=0.

 **********************************************************************

[...]
   546. RY*(  13) C  26                  0.00001     0.70461   
   547. RY*(  14) C  26                  0.00000     2.67921   
   548. RY*(  15) C  26                  0.00000     1.92178   
   549. RY*(  16) C  26                  0.00000    20.12030   
   550. RY*(  17) C  26                  0.00000     1.62027   
   551. RY*(   1) C  27                  0.00602     1.11139   
   552. RY*(   2) C  27                  0.00214     1.27143   
   553. RY*(   3) C  27                  0.00099     0.46467   
   554. RY*(   4) C  27                  0.00055     1.65135   
   555. RY*(   5) C  27                  0.00037     0.83982   
   556. RY*(   6) C  27                  0.00034     0.90479   
   557. RY*(   7) C  27                  0.00011     3.00911   
   558. RY*(   8) C  27                  0.00007     2.94919   
   559. RY*(   9) C  27                  0.00004     2.73128   
   560. RY*(  10) C  27                  0.00002     1.32402   
   561. RY*(  11) C  27                  0.00000    20.77364   
   562. RY*(  12) C  27                  0.00001     1.94728   
   563. RY*(  13) C  27                  0.00000     1.57739   
   564. RY*(  14) C  27                  0.00000     0.39060   
   565. RY*(  15) C  27                  0.00000     2.53024   
   566. RY*(  16) C  27                  0.00000     1.33341   
   567. RY*(  17) C  27                  0.00000     2.58763   
   568. RY*(   1) C  28                  0.00589     1.06983   
   569. RY*(   2) C  28                  0.00212     1.29978   
   570. RY*(   3) C  28                  0.00083     0.54351   
   571. RY*(   4) C  28                  0.00060     1.59490   
   572. RY*(   5) C  28                  0.00044     0.99199   
   573. RY*(   6) C  28                  0.00017     1.49668   
   574. RY*(   7) C  28                  0.00011     3.23147   
   575. RY*(   8) C  28                  0.00005     2.90870   
   576. RY*(   9) C  28                  0.00005     1.40635   
   577. RY*(  10) C  28                  0.00002     3.35844   
   578. RY*(  11) C  28                  0.00001     0.79931   
   579. RY*(  12) C  28                  0.00000     2.53598   
   580. RY*(  13) C  28                  0.00001     0.64877   
   581. RY*(  14) C  28                  0.00000     2.60510   
   582. RY*(  15) C  28                  0.00000     1.58420   
   583. RY*(  16) C  28                  0.00000    19.82828   
   584. RY*(  17) C  28                  0.00000     1.57510   
   585. RY*(   1) C  29                  0.00546     1.32786   
   586. RY*(   2) C  29                  0.00197     1.10205   
   587. RY*(   3) C  29                  0.00089     0.78899   
   588. RY*(   4) C  29                  0.00078     0.86551   
   589. RY*(   5) C  29                  0.00059     1.49250   
   590. RY*(   6) C  29                  0.00026     1.59812   
   591. RY*(   7) C  29                  0.00015     2.45915   
   592. RY*(   8) C  29                  0.00009     3.24063   
   593. RY*(   9) C  29                  0.00007     1.40953   
   594. RY*(  10) C  29                  0.00006     2.11334   
   595. RY*(  11) C  29                  0.00003     2.29555   
   596. RY*(  12) C  29                  0.00000    20.17248   
   597. RY*(  13) C  29                  0.00000     2.83898   
   598. RY*(  14) C  29                  0.00001     1.85764   
   599. RY*(  15) C  29                  0.00001     1.82508   
   600. RY*(  16) C  29                  0.00001     2.48256   
   601. RY*(  17) C  29                  0.00001     2.27028   
   602. RY*(   1) H  30                  0.00130     0.96379   
   603. RY*(   2) H  30                  0.00027     1.64916   
   604. RY*(   3) H  30                  0.00019     2.01229   
   605. RY*(   4) H  30                  0.00012     1.84605   
   606. RY*(   5) H  30                  0.00011     1.25823   
   607. RY*(   6) H  30                  0.00008     2.29302   
   608. RY*(   1) H  31                  0.00232     0.56886   
   609. RY*(   2) H  31                  0.00025     1.96982   
   610. RY*(   3) H  31                  0.00018     0.89401   
   611. RY*(   4) H  31                  0.00019     2.16556   
   612. RY*(   5) H  31                  0.00013     2.32538   
   613. RY*(   6) H  31                  0.00010     2.08906   
   614. RY*(   1) H  32                  0.00126     0.52845   
   615. RY*(   2) H  32                  0.00036     1.56427   
   616. RY*(   3) H  32                  0.00025     2.08491   
   617. RY*(   4) H  32                  0.00011     1.96247   
   618. RY*(   5) H  32                  0.00008     0.77119   
   619. RY*(   6) H  32                  0.00004     2.62445   
   620. RY*(   1) H  33                  0.00085     0.93552   
   621. RY*(   2) H  33                  0.00022     1.73849   
   622. RY*(   3) H  33                  0.00018     1.90590   
   623. RY*(   4) H  33                  0.00012     1.91629   
   624. RY*(   5) H  33                  0.00005     0.39016   
   625. RY*(   6) H  33                  0.00004     2.45985   
   626. RY*(   1) H  34                  0.00082     0.80775   
   627. RY*(   2) H  34                  0.00021     2.23744   
   628. RY*(   3) H  34                  0.00019     1.58859   
   629. RY*(   4) H  34                  0.00013     1.78399   
   630. RY*(   5) H  34                  0.00004     2.35467   
   631. RY*(   6) H  34                  0.00005     0.57927   
   632. RY*(   1) H  35                  0.00083     0.78037   
   633. RY*(   2) H  35                  0.00021     1.73977   
   634. RY*(   3) H  35                  0.00019     1.97004   
   635. RY*(   4) H  35                  0.00013     1.88429   
   636. RY*(   5) H  35                  0.00006     0.55369   
   637. RY*(   6) H  35                  0.00004     2.42301   
   638. RY*(   1) H  36                  0.00153     0.76619   
   639. RY*(   2) H  36                  0.00068     1.75905   
   640. RY*(   3) H  36                  0.00040     1.84812   
   641. RY*(   4) H  36                  0.00021     2.37559   
   642. RY*(   5) H  36                  0.00013     1.38501   
   643. RY*(   6) H  36                  0.00005     2.48416   
   644. RY*(   1) H  37                  0.00176     1.74587   
   645. RY*(   2) H  37                  0.00127     1.82594   
   646. RY*(   3) H  37                  0.00070     1.67126   
   647. RY*(   4) H  37                  0.00025     1.31737   
   648. RY*(   5) H  37                  0.00013     0.43131   
   649. RY*(   6) H  37                  0.00001     2.46228   
   650. RY*(   1) H  38                  0.00092     0.64030   
   651. RY*(   2) H  38                  0.00016     1.94968   
   652. RY*(   3) H  38                  0.00012     1.72490   
   653. RY*(   4) H  38                  0.00009     1.38473   
   654. RY*(   5) H  38                  0.00005     0.98409   
   655. RY*(   6) H  38                  0.00002     2.41691   
   656. RY*(   1) H  39                  0.00097     0.64314   
   657. RY*(   2) H  39                  0.00018     1.82180   
   658. RY*(   3) H  39                  0.00014     1.78626   
   659. RY*(   4) H  39                  0.00009     1.18031   
   660. RY*(   5) H  39                  0.00005     1.34184   
   661. RY*(   6) H  39                  0.00004     2.41154   
   662. RY*(   1) H  40                  0.00091     0.64015   
   663. RY*(   2) H  40                  0.00016     1.93131   
   664. RY*(   3) H  40                  0.00012     1.74478   
   665. RY*(   4) H  40                  0.00009     1.36597   
   666. RY*(   5) H  40                  0.00005     1.00892   
   667. RY*(   6) H  40                  0.00002     2.40335   
   668. RY*(   1) H  41                  0.00082     1.06304   
   669. RY*(   2) H  41                  0.00023     1.87520   
   670. RY*(   3) H  41                  0.00019     1.66853   
   671. RY*(   4) H  41                  0.00013     2.01559   
   672. RY*(   5) H  41                  0.00005     2.46941   
   673. RY*(   1) H  42                  0.00150     0.46555   
   674. RY*(   2) H  42                  0.00030     2.37765   
   675. RY*(   3) H  42                  0.00018     1.66177   
   676. RY*(   4) H  42                  0.00013     1.92498   
   677. RY*(   5) H  42                  0.00007     0.98105   
   678. RY*(   6) H  42                  0.00004     2.01441   
   679. RY*(   1) H  43                  0.00147     0.46984   
   680. RY*(   2) H  43                  0.00033     2.38457   
   681. RY*(   3) H  43                  0.00018     1.63892   
   682. RY*(   4) H  43                  0.00013     1.84783   
   683. RY*(   5) H  43                  0.00007     0.66967   
   684. RY*(   6) H  43                  0.00004     2.46351   
   685. RY*(   1) H  44                  0.00106     1.31812   
   686. RY*(   2) H  44                  0.00025     1.71869   
   687. RY*(   3) H  44                  0.00017     1.60299   
   688. RY*(   4) H  44                  0.00014     1.85925   
   689. RY*(   5) H  44                  0.00007     1.42697   
   690. RY*(   6) H  44                  0.00004     1.60223   
   691. RY*(   1) H  45                  0.00137     0.46542   
   692. RY*(   2) H  45                  0.00031     2.41100   
   693. RY*(   3) H  45                  0.00019     1.63380   
   694. RY*(   4) H  45                  0.00013     1.99431   
   695. RY*(   5) H  45                  0.00005     0.26697   
   696. RY*(   6) H  45                  0.00004     2.64002   
   697. RY*(   1) H  46                  0.00084     0.65439   
   698. RY*(   2) H  46                  0.00020     2.32610   
   699. RY*(   3) H  46                  0.00019     1.60333   
   700. RY*(   4) H  46                  0.00011     1.96919   
   701. RY*(   5) H  46                  0.00004     2.45613   
   702. RY*(   6) H  46                  0.00001     0.21887   
   703. RY*(   1) H  47                  0.00076     0.67785   
   704. RY*(   2) H  47                  0.00020     1.59272   
   705. RY*(   3) H  47                  0.00019     2.34947   
   706. RY*(   4) H  47                  0.00011     1.97047   
   707. RY*(   5) H  47                  0.00003     2.47202   
   708. RY*(   6) H  47                  0.00001     0.16560   
   709. RY*(   1) H  48                  0.00083     0.65624   
   710. RY*(   2) H  48                  0.00020     2.33092   
   711. RY*(   3) H  48                  0.00019     1.59961   
   712. RY*(   4) H  48                  0.00011     1.97942   
   713. RY*(   5) H  48                  0.00004     2.46966   
   714. RY*(   6) H  48                  0.00001     0.21526   
   715. RY*(   1) H  49                  0.00136     0.44662   
   716. RY*(   2) H  49                  0.00031     2.45598   
   717. RY*(   3) H  49                  0.00019     0.20639   
   718. RY*(   4) H  49                  0.00013     0.44995   
   719. RY*(   5) H  49                  0.00005     0.28856   
   720. RY*(   6) H  49                  0.00004     1.28439   
   721. BD*(   1) C   1 - C   2          0.02678     0.54425   
   722. BD*(   2) C   1 - C   2          0.39636     0.00209  728(v),733(v),739(r),109(g)
                                                    737(v),143(v),128(g),736(v)
                                                    127(g)
   723. BD*(   1) C   1 - C   6          0.01379     0.56122   
   724. BD*(   1) C   1 - H  32          0.01326     0.41780   
   725. BD*(   1) C   2 - C   3          0.02444     0.54338   
   726. BD*(   1) C   2 - N   7          0.03000     0.38351   
   727. BD*(   1) C   3 - C   4          0.01340     0.56297   
   728. BD*(   2) C   3 - C   4          0.32585     0.00991  722(v),733(v),143(g),161(g)
                                                    144(g),160(g)
   729. BD*(   1) C   3 - H  33          0.01277     0.41600   
   730. BD*(   1) C   4 - C   5          0.02403     0.56080   
   731. BD*(   1) C   4 - H  34          0.01391     0.42281   
   732. BD*(   1) C   5 - C   6          0.02378     0.56355   
   733. BD*(   2) C   5 - C   6          0.34117     0.01857  728(v),722(v),194(g),757(v)
                                                    160(v)
   734. BD*(   1) C   5 - C  18          0.01575     0.40432   
   735. BD*(   1) C   6 - H  35          0.01407     0.42210   
   736. BD*(   1) N   7 - C   8          0.02718     0.45946   
   737. BD*(   1) N   7 - H  36          0.02230     0.36548   
   738. BD*(   1) C   8 - C   9          0.02682     0.59155   
   739. BD*(   2) C   8 - C   9          0.30785     0.00113  748(v),722(r),245(g),744(v)
                                                    745(v),229(g),311(v),784(r)
                                                    786(r)
   740. BD*(   1) C   8 - C  10          0.03593     0.36107   
   741. BD*(   1) C   9 - C  11          0.07921     0.44017   
   742. BD*(   1) C   9 -Cl  13          0.02815     0.14707   
   743. BD*(   1) C  10 - O  12          0.02818     0.24787   
   744. BD*(   1) C  10 - C  15          0.05253     0.32348   
   745. BD*(   1) C  10 - H  30          0.02694     0.37777   
   746. BD*(   1) C  11 - O  12          0.12257     0.30780  743(g),740(v),278(g),744(v)
                                                    742(v),738(v),286(g)
   747. BD*(   1) C  11 - O  14          0.01282     0.63542   
   748. BD*(   2) C  11 - O  14          0.28781     0.01340  739(v),279(g),333(g),346(g)
   749. BD*(   1) C  15 - C  16          0.03647     0.39712   
   750. BD*(   1) C  15 - O  17          0.03164     0.27285   
   751. BD*(   1) C  15 - H  31          0.02362     0.37847   
   752. BD*(   1) C  16 - C  19          0.02262     0.56807   
   753. BD*(   2) C  16 - C  19          0.35866     0.02742  767(v),762(v),750(v),419(g)
                                                    744(v),487(v)
   754. BD*(   1) C  16 - C  23          0.02624     0.55344   
   755. BD*(   1) O  17 - H  37          0.00963     0.42294   
   756. BD*(   1) C  18 - H  38          0.00504     0.38916   
   757. BD*(   1) C  18 - H  39          0.01039     0.38481   
   758. BD*(   1) C  18 - H  40          0.00567     0.38892   
   759. BD*(   1) C  19 - C  20          0.01405     0.57633   
   760. BD*(   1) C  19 - H  41          0.01452     0.42817   
   761. BD*(   1) C  20 - C  21          0.02443     0.56097   
   762. BD*(   2) C  20 - C  21          0.35650     0.02869  753(v),767(v),772(v),436(g)
                                                    770(v),470(v),786(r)
   763. BD*(   1) C  20 - H  42          0.01402     0.43517   
   764. BD*(   1) C  21 - C  22          0.02448     0.56038   
   765. BD*(   1) C  21 - C  24          0.03159     0.45404   
   766. BD*(   1) C  22 - C  23          0.01506     0.56865   
   767. BD*(   2) C  22 - C  23          0.30987     0.02680  753(v),762(v),470(g),487(g)
                                                    488(g),471(g)
   768. BD*(   1) C  22 - H  43          0.01401     0.43888   
   769. BD*(   1) C  23 - H  44          0.01512     0.45324   
   770. BD*(   1) C  24 - C  25          0.02500     0.55339   
   771. BD*(   1) C  24 - C  29          0.02499     0.55402   
   772. BD*(   2) C  24 - C  29          0.36157     0.03115  774(v),779(v),762(v),587(g)
                                                    717(v),764(v),782(v)
   773. BD*(   1) C  25 - C  26          0.01514     0.57791   
   774. BD*(   2) C  25 - C  26          0.32381     0.03460  772(v),779(v),536(g),781(r)
                                                    520(g),519(g),784(r)
   775. BD*(   1) C  25 - H  45          0.01404     0.44069   
   776. BD*(   1) C  26 - C  27          0.01635     0.57779   
   777. BD*(   1) C  26 - H  46          0.01358     0.44018   
   778. BD*(   1) C  27 - C  28          0.01634     0.57421   
   779. BD*(   2) C  27 - C  28          0.33549     0.02647  772(v),774(v),553(g),570(g)
                                                    564(g)
   780. BD*(   1) C  27 - H  47          0.01364     0.45067   
   781. BD*(   1) C  28 - C  29          0.01513     3.51343   
   782. BD*(   1) C  28 - H  48          0.01356     2.59604   
   783. BD*(   1) C  29 - H  49          0.01403     3.24874   
       -------------------------------
              Total Lewis  206.65313  ( 97.4779%)
        Valence non-Lewis    4.91397  (  2.3179%)
        Rydberg non-Lewis    0.43290  (  0.2042%)
       -------------------------------
            Total unit  1  212.00000  (100.0000%)
           Charge unit  1    0.00000
 Leave Link  607 at Fri Jul 05 07:05:47 2019, MaxMem=   209715200 cpu:        40.0
 (Enter C:\G09W\l9999.exe)
 1|1|UNPC-CCSC-01038015|FOpt|RB3LYP|6-311++G(d,p)|C24H20Cl1N1O3|PERFIL|
 05-Jul-2019|0||#p opt b3lyp/6-311++g(d,p) pop=(nbo,chelpg) geom=connec
 tivity||9l.log||0,1|C,2.4552387198,2.0262238924,-1.1911950576|C,3.1566
 413694,1.6684920016,-0.0372732292|C,3.4202226651,2.6457174277,0.927407
 5359|C,2.9778727917,3.9509070019,0.740982141|C,2.2446667029,4.31758639
 42,-0.3935709282|C,1.9956007581,3.3307276364,-1.3521394167|N,3.6549805
 657,0.3537955602,0.1601123511|C,3.0363051889,-0.8266554942,-0.09436993
 64|C,3.6061836433,-2.054003789,-0.1071759778|C,1.5457719798,-1.0105565
 773,-0.3043510811|C,2.6047486955,-3.0839928838,-0.3378324404|O,1.38618
 40481,-2.426963818,-0.4882146138|Cl,5.2809450887,-2.4017346504,0.14615
 94367|O,2.6916163039,-4.276489532,-0.411076525|C,0.6882991497,-0.53791
 34973,0.9004396424|C,-0.8018152879,-0.4875788903,0.603959137|O,0.99743
 21303,-1.3040273349,2.0592749271|C,1.7267887527,5.7243459266,-0.566494
 7914|C,-1.523962624,0.6578408183,0.9517608916|C,-2.8963346762,0.736108
 7647,0.7384639626|C,-3.5992481802,-0.3347144303,0.1696309715|C,-2.8717
 781031,-1.4828817234,-0.1759694289|C,-1.4985660053,-1.5608209258,0.034
 1634983|C,-5.0641400208,-0.2543385363,-0.059931947|C,-5.9087124612,0.3
 502133035,0.8832538832|C,-7.2820367181,0.4283712286,0.6677896053|C,-7.
 8412744786,-0.0965022288,-0.4961925369|C,-7.014651314,-0.7010574871,-1
 .441866302|C,-5.6413813548,-0.7793796215,-1.2257550008|H,1.1929014656,
 -0.519403968,-1.213035459|H,1.0127135905,0.4757624302,1.1425428146|H,2
 .2955899302,1.2997892764,-1.9783292107|H,3.9648159814,2.3773175659,1.8
 262166681|H,3.1981008645,4.6947901546,1.4996695484|H,1.4526672474,3.58
 8005882,-2.2556782697|H,4.6065200133,0.276858292,0.4947389351|H,0.6704
 415156,-2.2022628251,1.9274575049|H,1.597299016,5.9739578413,-1.621825
 697|H,0.7535079271,5.8472921864,-0.0789217613|H,2.4070336276,6.4567971
 195,-0.1258069256|H,-1.0053598749,1.5037244089,1.3915513374|H,-3.42427
 24533,1.6471815903,0.9963819325|H,-3.3899182885,-2.3368719847,-0.59719
 52353|H,-0.9697121248,-2.4632240824,-0.2472562177|H,-5.4889450398,0.73
 94494256,1.803994291|H,-7.9171927312,0.8913988585,1.4148592988|H,-8.91
 05793458,-0.0362642464,-0.6640519968|H,-7.4385059513,-1.1062337709,-2.
 3540493307|H,-5.0067646987,-1.2317166899,-1.9794279975||Version=IA32W-
 G09RevD.01|State=1-A|HF=-1667.575993|RMSD=6.225e-009|RMSF=2.444e-006|D
 ipole=-0.5744846,3.0114448,-0.2089499|Quadrupole=7.2130717,-7.8966925,
 0.6836209,15.272507,3.2727752,1.7717313|PG=C01 [X(C24H20Cl1N1O3)]||@


 ... IT IS NO ONE DREAME THAT
     CAN PLEASE THESE ALL ...

                -- BEN JONSON
 Job cpu time:       0 days 17 hours  7 minutes 35.0 seconds.
 File lengths (MBytes):  RWF=    384 Int=      0 D2E=      0 Chk=     48 Scr=      1
 Normal termination of Gaussian 09 at Fri Jul 05 07:05:47 2019.
