 Entering Link 1 = C:\G09W\l1.exe PID=     50980.
  
 Copyright (c) 1988,1990,1992,1993,1995,1998,2003,2009,2013,
            Gaussian, Inc.  All Rights Reserved.
  
 This is part of the Gaussian(R) 09 program.  It is based on
 the Gaussian(R) 03 system (copyright 2003, Gaussian, Inc.),
 the Gaussian(R) 98 system (copyright 1998, Gaussian, Inc.),
 the Gaussian(R) 94 system (copyright 1995, Gaussian, Inc.),
 the Gaussian 92(TM) system (copyright 1992, Gaussian, Inc.),
 the Gaussian 90(TM) system (copyright 1990, Gaussian, Inc.),
 the Gaussian 88(TM) system (copyright 1988, Gaussian, Inc.),
 the Gaussian 86(TM) system (copyright 1986, Carnegie Mellon
 University), and the Gaussian 82(TM) system (copyright 1983,
 Carnegie Mellon University). Gaussian is a federally registered
 trademark of Gaussian, Inc.
  
 This software contains proprietary and confidential information,
 including trade secrets, belonging to Gaussian, Inc.
  
 This software is provided under written license and may be
 used, copied, transmitted, or stored only in accord with that
 written license.
  
 The following legend is applicable only to US Government
 contracts under FAR:
  
                    RESTRICTED RIGHTS LEGEND
  
 Use, reproduction and disclosure by the US Government is
 subject to restrictions as set forth in subparagraphs (a)
 and (c) of the Commercial Computer Software - Restricted
 Rights clause in FAR 52.227-19.
  
 Gaussian, Inc.
 340 Quinnipiac St., Bldg. 40, Wallingford CT 06492
  
  
 ---------------------------------------------------------------
 Warning -- This program may not be used in any manner that
 competes with the business of Gaussian, Inc. or will provide
 assistance to any competitor of Gaussian, Inc.  The licensee
 of this program is prohibited from giving any competitor of
 Gaussian, Inc. access to this program.  By using this program,
 the user acknowledges that Gaussian, Inc. is engaged in the
 business of creating and licensing software in the field of
 computational chemistry and represents and warrants to the
 licensee that it is not a competitor of Gaussian, Inc. and that
 it will not use this program in any manner prohibited above.
 ---------------------------------------------------------------
  

 Cite this work as:
 Gaussian 09, Revision D.01,
 M. J. Frisch, G. W. Trucks, H. B. Schlegel, G. E. Scuseria, 
 M. A. Robb, J. R. Cheeseman, G. Scalmani, V. Barone, B. Mennucci, 
 G. A. Petersson, H. Nakatsuji, M. Caricato, X. Li, H. P. Hratchian, 
 A. F. Izmaylov, J. Bloino, G. Zheng, J. L. Sonnenberg, M. Hada, 
 M. Ehara, K. Toyota, R. Fukuda, J. Hasegawa, M. Ishida, T. Nakajima, 
 Y. Honda, O. Kitao, H. Nakai, T. Vreven, J. A. Montgomery, Jr., 
 J. E. Peralta, F. Ogliaro, M. Bearpark, J. J. Heyd, E. Brothers, 
 K. N. Kudin, V. N. Staroverov, T. Keith, R. Kobayashi, J. Normand, 
 K. Raghavachari, A. Rendell, J. C. Burant, S. S. Iyengar, J. Tomasi, 
 M. Cossi, N. Rega, J. M. Millam, M. Klene, J. E. Knox, J. B. Cross, 
 V. Bakken, C. Adamo, J. Jaramillo, R. Gomperts, R. E. Stratmann, 
 O. Yazyev, A. J. Austin, R. Cammi, C. Pomelli, J. W. Ochterski, 
 R. L. Martin, K. Morokuma, V. G. Zakrzewski, G. A. Voth, 
 P. Salvador, J. J. Dannenberg, S. Dapprich, A. D. Daniels, 
 O. Farkas, J. B. Foresman, J. V. Ortiz, J. Cioslowski, 
 and D. J. Fox, Gaussian, Inc., Wallingford CT, 2013.
 
 ******************************************
 Gaussian 09:  IA32W-G09RevD.01 24-Apr-2013
                05-Jul-2019 
 ******************************************
 %nprocshared=4
 Will use up to    4 processors via shared memory.
 %mem=1600MB
 ----------------------------------------------------
 #p opt b3lyp/6-311++g(d,p) pop=nbo geom=connectivity
 ----------------------------------------------------
 1/14=-1,18=20,19=15,26=3,38=1,57=2/1,3;
 2/9=110,12=2,17=6,18=5,40=1/2;
 3/5=4,6=6,7=1111,11=2,16=1,25=1,30=1,71=1,74=-5/1,2,3;
 4//1;
 5/5=2,38=5/2;
 6/7=2,8=2,9=2,10=2,28=1,40=1/1,7;
 7//1,2,3,16;
 1/14=-1,18=20,19=15,26=3/3(2);
 2/9=110/2;
 99//99;
 2/9=110/2;
 3/5=4,6=6,7=1111,11=2,16=1,25=1,30=1,71=1,74=-5/1,2,3;
 4/5=5,16=3,69=1/1;
 5/5=2,38=5/2;
 7//1,2,3,16;
 1/14=-1,18=20,19=15,26=3/3(-5);
 2/9=110/2;
 6/7=2,8=2,9=2,10=2,19=2,28=1,40=1/1,7;
 99/9=1/99;
 Leave Link    1 at Fri Jul 05 09:27:44 2019, MaxMem=   209715200 cpu:         0.0
 (Enter C:\G09W\l101.exe)
 ------
 9m.log
 ------
 Symbolic Z-matrix:
 Charge =  0 Multiplicity = 1
 C                     2.75571   0.93469  -1.10647 
 C                     3.11179   0.38985   0.1186 
 C                     3.29473   1.22554   1.21196 
 C                     3.11815   2.5915    1.08606 
 C                     2.7393    3.11782  -0.13608 
 C                     2.55381   2.29898  -1.23332 
 N                     3.33366  -1.00267   0.27186 
 C                     2.49773  -1.99571  -0.1078 
 C                     2.78976  -3.28207  -0.29642 
 C                     1.00486  -1.82633  -0.31134 
 C                     1.57664  -4.02137  -0.63065 
 O                     0.56902  -3.11913  -0.67256 
 Cl                    4.33107  -4.02597  -0.15249 
 O                     1.41114  -5.16877  -0.84593 
 C                     0.26188  -1.36944   0.95858 
 C                    -1.1872   -0.99944   0.68562 
 O                     0.41458  -2.32364   1.96577 
 Br                    2.47704   4.98649  -0.30798 
 C                    -1.61363   0.30203   0.90571 
 C                    -2.92864   0.67268   0.67949 
 C                    -3.86282  -0.25346   0.23097 
 C                    -3.43306  -1.56077   0.01261 
 C                    -2.11917  -1.92886   0.23203 
 C                    -5.28034   0.13897  -0.01026 
 C                    -5.96919   0.92357   0.91109 
 C                    -7.28551   1.28885   0.68681 
 C                    -7.93755   0.87602  -0.46323 
 C                    -7.26314   0.09492  -1.38697 
 C                    -5.94686  -0.2702   -1.16241 
 H                     0.78522  -1.15176  -1.12788 
 H                     0.76261  -0.48276   1.32137 
 H                     2.65207   0.29972  -1.96759 
 H                     3.56704   0.80176   2.16164 
 H                     3.26146   3.2368    1.93156 
 H                     2.27256   2.71851  -2.18025 
 H                     4.26103  -1.28502   0.50082 
 H                    -0.11429  -3.0828    1.77784 
 H                    -0.91441   1.04234   1.25514 
 H                    -3.22412   1.69402   0.83989 
 H                    -4.13727  -2.30274  -0.3185 
 H                    -1.82446  -2.94372   0.03706 
 H                    -5.47945   1.23216   1.81754 
 H                    -7.803     1.8893    1.41417 
 H                    -8.96042   1.15942  -0.63743 
 H                    -7.75873  -0.22565  -2.2864 
 H                    -5.42723  -0.86079  -1.89585 
 
 NAtoms=     46 NQM=       46 NQMF=       0 NMMI=      0 NMMIF=      0
                NMic=       0 NMicF=      0.
                    Isotopes and Nuclear Properties:
 (Nuclear quadrupole moments (NQMom) in fm**2, nuclear magnetic moments (NMagM)
  in nuclear magnetons)

  Atom         1           2           3           4           5           6           7           8           9          10
 IAtWgt=          12          12          12          12          12          12          14          12          12          12
 AtmWgt=  12.0000000  12.0000000  12.0000000  12.0000000  12.0000000  12.0000000  14.0030740  12.0000000  12.0000000  12.0000000
 NucSpn=           0           0           0           0           0           0           2           0           0           0
 AtZEff=   0.0000000   0.0000000   0.0000000   0.0000000   0.0000000   0.0000000   0.0000000   0.0000000   0.0000000   0.0000000
 NQMom=    0.0000000   0.0000000   0.0000000   0.0000000   0.0000000   0.0000000   2.0440000   0.0000000   0.0000000   0.0000000
 NMagM=    0.0000000   0.0000000   0.0000000   0.0000000   0.0000000   0.0000000   0.4037610   0.0000000   0.0000000   0.0000000
 AtZNuc=   6.0000000   6.0000000   6.0000000   6.0000000   6.0000000   6.0000000   7.0000000   6.0000000   6.0000000   6.0000000

  Atom        11          12          13          14          15          16          17          18          19          20
 IAtWgt=          12          16          35          16          12          12          16          79          12          12
 AtmWgt=  12.0000000  15.9949146  34.9688527  15.9949146  12.0000000  12.0000000  15.9949146  78.9183361  12.0000000  12.0000000
 NucSpn=           0           0           3           0           0           0           0           3           0           0
 AtZEff=   0.0000000   0.0000000   0.0000000   0.0000000   0.0000000   0.0000000   0.0000000   0.0000000   0.0000000   0.0000000
 NQMom=    0.0000000   0.0000000  -8.1650000   0.0000000   0.0000000   0.0000000   0.0000000  31.3000000   0.0000000   0.0000000
 NMagM=    0.0000000   0.0000000   0.8218740   0.0000000   0.0000000   0.0000000   0.0000000   2.1063990   0.0000000   0.0000000
 AtZNuc=   6.0000000   8.0000000  17.0000000   8.0000000   6.0000000   6.0000000   8.0000000  35.0000000   6.0000000   6.0000000

  Atom        21          22          23          24          25          26          27          28          29          30
 IAtWgt=          12          12          12          12          12          12          12          12          12           1
 AtmWgt=  12.0000000  12.0000000  12.0000000  12.0000000  12.0000000  12.0000000  12.0000000  12.0000000  12.0000000   1.0078250
 NucSpn=           0           0           0           0           0           0           0           0           0           1
 AtZEff=   0.0000000   0.0000000   0.0000000   0.0000000   0.0000000   0.0000000   0.0000000   0.0000000   0.0000000   0.0000000
 NQMom=    0.0000000   0.0000000   0.0000000   0.0000000   0.0000000   0.0000000   0.0000000   0.0000000   0.0000000   0.0000000
 NMagM=    0.0000000   0.0000000   0.0000000   0.0000000   0.0000000   0.0000000   0.0000000   0.0000000   0.0000000   2.7928460
 AtZNuc=   6.0000000   6.0000000   6.0000000   6.0000000   6.0000000   6.0000000   6.0000000   6.0000000   6.0000000   1.0000000

  Atom        31          32          33          34          35          36          37          38          39          40
 IAtWgt=           1           1           1           1           1           1           1           1           1           1
 AtmWgt=   1.0078250   1.0078250   1.0078250   1.0078250   1.0078250   1.0078250   1.0078250   1.0078250   1.0078250   1.0078250
 NucSpn=           1           1           1           1           1           1           1           1           1           1
 AtZEff=   0.0000000   0.0000000   0.0000000   0.0000000   0.0000000   0.0000000   0.0000000   0.0000000   0.0000000   0.0000000
 NQMom=    0.0000000   0.0000000   0.0000000   0.0000000   0.0000000   0.0000000   0.0000000   0.0000000   0.0000000   0.0000000
 NMagM=    2.7928460   2.7928460   2.7928460   2.7928460   2.7928460   2.7928460   2.7928460   2.7928460   2.7928460   2.7928460
 AtZNuc=   1.0000000   1.0000000   1.0000000   1.0000000   1.0000000   1.0000000   1.0000000   1.0000000   1.0000000   1.0000000

  Atom        41          42          43          44          45          46
 IAtWgt=           1           1           1           1           1           1
 AtmWgt=   1.0078250   1.0078250   1.0078250   1.0078250   1.0078250   1.0078250
 NucSpn=           1           1           1           1           1           1
 AtZEff=   0.0000000   0.0000000   0.0000000   0.0000000   0.0000000   0.0000000
 NQMom=    0.0000000   0.0000000   0.0000000   0.0000000   0.0000000   0.0000000
 NMagM=    2.7928460   2.7928460   2.7928460   2.7928460   2.7928460   2.7928460
 AtZNuc=   1.0000000   1.0000000   1.0000000   1.0000000   1.0000000   1.0000000
 Leave Link  101 at Fri Jul 05 09:27:44 2019, MaxMem=   209715200 cpu:         0.0
 (Enter C:\G09W\l103.exe)

 GradGradGradGradGradGradGradGradGradGradGradGradGradGradGradGradGradGrad
 Berny optimization.
 Initialization pass.
                           ----------------------------
                           !    Initial Parameters    !
                           ! (Angstroms and Degrees)  !
 --------------------------                            --------------------------
 ! Name  Definition              Value          Derivative Info.                !
 --------------------------------------------------------------------------------
 ! R1    R(1,2)                  1.3872         estimate D2E/DX2                !
 ! R2    R(1,6)                  1.385          estimate D2E/DX2                !
 ! R3    R(1,32)                 1.0749         estimate D2E/DX2                !
 ! R4    R(2,3)                  1.3883         estimate D2E/DX2                !
 ! R5    R(2,7)                  1.4184         estimate D2E/DX2                !
 ! R6    R(3,4)                  1.3831         estimate D2E/DX2                !
 ! R7    R(3,33)                 1.075          estimate D2E/DX2                !
 ! R8    R(4,5)                  1.3835         estimate D2E/DX2                !
 ! R9    R(4,34)                 1.0732         estimate D2E/DX2                !
 ! R10   R(5,6)                  1.3816         estimate D2E/DX2                !
 ! R11   R(5,18)                 1.8948         estimate D2E/DX2                !
 ! R12   R(6,35)                 1.0732         estimate D2E/DX2                !
 ! R13   R(7,8)                  1.3524         estimate D2E/DX2                !
 ! R14   R(7,36)                 0.9961         estimate D2E/DX2                !
 ! R15   R(8,9)                  1.3325         estimate D2E/DX2                !
 ! R16   R(8,10)                 1.5162         estimate D2E/DX2                !
 ! R17   R(9,11)                 1.4594         estimate D2E/DX2                !
 ! R18   R(9,13)                 1.7175         estimate D2E/DX2                !
 ! R19   R(10,12)                1.4113         estimate D2E/DX2                !
 ! R20   R(10,15)                1.5406         estimate D2E/DX2                !
 ! R21   R(10,30)                1.0817         estimate D2E/DX2                !
 ! R22   R(11,12)                1.3532         estimate D2E/DX2                !
 ! R23   R(11,14)                1.1791         estimate D2E/DX2                !
 ! R24   R(15,16)                1.5203         estimate D2E/DX2                !
 ! R25   R(15,17)                1.3958         estimate D2E/DX2                !
 ! R26   R(15,31)                1.081          estimate D2E/DX2                !
 ! R27   R(16,19)                1.3871         estimate D2E/DX2                !
 ! R28   R(16,23)                1.3922         estimate D2E/DX2                !
 ! R29   R(17,37)                0.9441         estimate D2E/DX2                !
 ! R30   R(19,20)                1.3848         estimate D2E/DX2                !
 ! R31   R(19,38)                1.0766         estimate D2E/DX2                !
 ! R32   R(20,21)                1.3898         estimate D2E/DX2                !
 ! R33   R(20,39)                1.0753         estimate D2E/DX2                !
 ! R34   R(21,22)                1.3933         estimate D2E/DX2                !
 ! R35   R(21,24)                1.4905         estimate D2E/DX2                !
 ! R36   R(22,23)                1.382          estimate D2E/DX2                !
 ! R37   R(22,40)                1.0752         estimate D2E/DX2                !
 ! R38   R(23,41)                1.0746         estimate D2E/DX2                !
 ! R39   R(24,25)                1.3925         estimate D2E/DX2                !
 ! R40   R(24,29)                1.3925         estimate D2E/DX2                !
 ! R41   R(25,26)                1.3843         estimate D2E/DX2                !
 ! R42   R(25,42)                1.0755         estimate D2E/DX2                !
 ! R43   R(26,27)                1.385          estimate D2E/DX2                !
 ! R44   R(26,43)                1.0758         estimate D2E/DX2                !
 ! R45   R(27,28)                1.385          estimate D2E/DX2                !
 ! R46   R(27,44)                1.0756         estimate D2E/DX2                !
 ! R47   R(28,29)                1.3843         estimate D2E/DX2                !
 ! R48   R(28,45)                1.0758         estimate D2E/DX2                !
 ! R49   R(29,46)                1.0755         estimate D2E/DX2                !
 ! A1    A(2,1,6)              120.3437         estimate D2E/DX2                !
 ! A2    A(2,1,32)             120.0133         estimate D2E/DX2                !
 ! A3    A(6,1,32)             119.6342         estimate D2E/DX2                !
 ! A4    A(1,2,3)              119.532          estimate D2E/DX2                !
 ! A5    A(1,2,7)              121.41           estimate D2E/DX2                !
 ! A6    A(3,2,7)              119.0303         estimate D2E/DX2                !
 ! A7    A(2,3,4)              120.3981         estimate D2E/DX2                !
 ! A8    A(2,3,33)             119.4613         estimate D2E/DX2                !
 ! A9    A(4,3,33)             120.1386         estimate D2E/DX2                !
 ! A10   A(3,4,5)              119.4115         estimate D2E/DX2                !
 ! A11   A(3,4,34)             120.3363         estimate D2E/DX2                !
 ! A12   A(5,4,34)             120.2477         estimate D2E/DX2                !
 ! A13   A(4,5,6)              120.8528         estimate D2E/DX2                !
 ! A14   A(4,5,18)             119.5518         estimate D2E/DX2                !
 ! A15   A(6,5,18)             119.595          estimate D2E/DX2                !
 ! A16   A(1,6,5)              119.4399         estimate D2E/DX2                !
 ! A17   A(1,6,35)             120.2712         estimate D2E/DX2                !
 ! A18   A(5,6,35)             120.2801         estimate D2E/DX2                !
 ! A19   A(2,7,8)              126.4311         estimate D2E/DX2                !
 ! A20   A(2,7,36)             116.6643         estimate D2E/DX2                !
 ! A21   A(8,7,36)             115.5858         estimate D2E/DX2                !
 ! A22   A(7,8,9)              127.8148         estimate D2E/DX2                !
 ! A23   A(7,8,10)             124.3505         estimate D2E/DX2                !
 ! A24   A(9,8,10)             107.7363         estimate D2E/DX2                !
 ! A25   A(8,9,11)             109.8324         estimate D2E/DX2                !
 ! A26   A(8,9,13)             127.0818         estimate D2E/DX2                !
 ! A27   A(11,9,13)            123.0752         estimate D2E/DX2                !
 ! A28   A(8,10,12)            103.6561         estimate D2E/DX2                !
 ! A29   A(8,10,15)            113.411          estimate D2E/DX2                !
 ! A30   A(8,10,30)            111.7739         estimate D2E/DX2                !
 ! A31   A(12,10,15)           109.494          estimate D2E/DX2                !
 ! A32   A(12,10,30)           108.3822         estimate D2E/DX2                !
 ! A33   A(15,10,30)           109.8391         estimate D2E/DX2                !
 ! A34   A(9,11,12)            106.7557         estimate D2E/DX2                !
 ! A35   A(9,11,14)            130.6503         estimate D2E/DX2                !
 ! A36   A(12,11,14)           122.5926         estimate D2E/DX2                !
 ! A37   A(10,12,11)           111.8941         estimate D2E/DX2                !
 ! A38   A(10,15,16)           112.5727         estimate D2E/DX2                !
 ! A39   A(10,15,17)           109.8347         estimate D2E/DX2                !
 ! A40   A(10,15,31)           107.2478         estimate D2E/DX2                !
 ! A41   A(16,15,17)           113.592          estimate D2E/DX2                !
 ! A42   A(16,15,31)           107.5866         estimate D2E/DX2                !
 ! A43   A(17,15,31)           105.5386         estimate D2E/DX2                !
 ! A44   A(15,16,19)           119.5303         estimate D2E/DX2                !
 ! A45   A(15,16,23)           122.2829         estimate D2E/DX2                !
 ! A46   A(19,16,23)           118.1829         estimate D2E/DX2                !
 ! A47   A(15,17,37)           110.1683         estimate D2E/DX2                !
 ! A48   A(16,19,20)           121.1388         estimate D2E/DX2                !
 ! A49   A(16,19,38)           119.8029         estimate D2E/DX2                !
 ! A50   A(20,19,38)           119.0579         estimate D2E/DX2                !
 ! A51   A(19,20,21)           120.8391         estimate D2E/DX2                !
 ! A52   A(19,20,39)           119.3933         estimate D2E/DX2                !
 ! A53   A(21,20,39)           119.7613         estimate D2E/DX2                !
 ! A54   A(20,21,22)           117.9354         estimate D2E/DX2                !
 ! A55   A(20,21,24)           121.0665         estimate D2E/DX2                !
 ! A56   A(22,21,24)           120.998          estimate D2E/DX2                !
 ! A57   A(21,22,23)           121.2152         estimate D2E/DX2                !
 ! A58   A(21,22,40)           119.5849         estimate D2E/DX2                !
 ! A59   A(23,22,40)           119.1935         estimate D2E/DX2                !
 ! A60   A(16,23,22)           120.6873         estimate D2E/DX2                !
 ! A61   A(16,23,41)           120.3987         estimate D2E/DX2                !
 ! A62   A(22,23,41)           118.911          estimate D2E/DX2                !
 ! A63   A(21,24,25)           120.7799         estimate D2E/DX2                !
 ! A64   A(21,24,29)           120.7804         estimate D2E/DX2                !
 ! A65   A(25,24,29)           118.4397         estimate D2E/DX2                !
 ! A66   A(24,25,26)           120.7881         estimate D2E/DX2                !
 ! A67   A(24,25,42)           119.6081         estimate D2E/DX2                !
 ! A68   A(26,25,42)           119.5912         estimate D2E/DX2                !
 ! A69   A(25,26,27)           120.2342         estimate D2E/DX2                !
 ! A70   A(25,26,43)           119.6776         estimate D2E/DX2                !
 ! A71   A(27,26,43)           120.0866         estimate D2E/DX2                !
 ! A72   A(26,27,28)           119.5164         estimate D2E/DX2                !
 ! A73   A(26,27,44)           120.243          estimate D2E/DX2                !
 ! A74   A(28,27,44)           120.2406         estimate D2E/DX2                !
 ! A75   A(27,28,29)           120.2357         estimate D2E/DX2                !
 ! A76   A(27,28,45)           120.0896         estimate D2E/DX2                !
 ! A77   A(29,28,45)           119.6735         estimate D2E/DX2                !
 ! A78   A(24,29,28)           120.7859         estimate D2E/DX2                !
 ! A79   A(24,29,46)           119.6255         estimate D2E/DX2                !
 ! A80   A(28,29,46)           119.5776         estimate D2E/DX2                !
 ! D1    D(6,1,2,3)             -1.465          estimate D2E/DX2                !
 ! D2    D(6,1,2,7)           -179.5329         estimate D2E/DX2                !
 ! D3    D(32,1,2,3)           177.4524         estimate D2E/DX2                !
 ! D4    D(32,1,2,7)            -0.6155         estimate D2E/DX2                !
 ! D5    D(2,1,6,5)              1.4483         estimate D2E/DX2                !
 ! D6    D(2,1,6,35)          -179.6287         estimate D2E/DX2                !
 ! D7    D(32,1,6,5)          -177.4732         estimate D2E/DX2                !
 ! D8    D(32,1,6,35)            1.4498         estimate D2E/DX2                !
 ! D9    D(1,2,3,4)              0.2951         estimate D2E/DX2                !
 ! D10   D(1,2,3,33)           179.7712         estimate D2E/DX2                !
 ! D11   D(7,2,3,4)            178.4093         estimate D2E/DX2                !
 ! D12   D(7,2,3,33)            -2.1146         estimate D2E/DX2                !
 ! D13   D(1,2,7,8)            -51.4776         estimate D2E/DX2                !
 ! D14   D(1,2,7,36)           114.7593         estimate D2E/DX2                !
 ! D15   D(3,2,7,8)            130.445          estimate D2E/DX2                !
 ! D16   D(3,2,7,36)           -63.3181         estimate D2E/DX2                !
 ! D17   D(2,3,4,5)              0.8734         estimate D2E/DX2                !
 ! D18   D(2,3,4,34)          -179.896          estimate D2E/DX2                !
 ! D19   D(33,3,4,5)          -178.5991         estimate D2E/DX2                !
 ! D20   D(33,3,4,34)            0.6315         estimate D2E/DX2                !
 ! D21   D(3,4,5,6)             -0.8932         estimate D2E/DX2                !
 ! D22   D(3,4,5,18)           179.3052         estimate D2E/DX2                !
 ! D23   D(34,4,5,6)           179.8755         estimate D2E/DX2                !
 ! D24   D(34,4,5,18)            0.0739         estimate D2E/DX2                !
 ! D25   D(4,5,6,1)             -0.2627         estimate D2E/DX2                !
 ! D26   D(4,5,6,35)          -179.1856         estimate D2E/DX2                !
 ! D27   D(18,5,6,1)           179.5389         estimate D2E/DX2                !
 ! D28   D(18,5,6,35)            0.6159         estimate D2E/DX2                !
 ! D29   D(2,7,8,9)            161.4667         estimate D2E/DX2                !
 ! D30   D(2,7,8,10)           -22.5899         estimate D2E/DX2                !
 ! D31   D(36,7,8,9)            -4.8992         estimate D2E/DX2                !
 ! D32   D(36,7,8,10)          171.0442         estimate D2E/DX2                !
 ! D33   D(7,8,9,11)           176.8487         estimate D2E/DX2                !
 ! D34   D(7,8,9,13)            -1.9902         estimate D2E/DX2                !
 ! D35   D(10,8,9,11)            0.3643         estimate D2E/DX2                !
 ! D36   D(10,8,9,13)         -178.4746         estimate D2E/DX2                !
 ! D37   D(7,8,10,12)         -178.9574         estimate D2E/DX2                !
 ! D38   D(7,8,10,15)          -60.31           estimate D2E/DX2                !
 ! D39   D(7,8,10,30)           64.5226         estimate D2E/DX2                !
 ! D40   D(9,8,10,12)           -2.3211         estimate D2E/DX2                !
 ! D41   D(9,8,10,15)          116.3262         estimate D2E/DX2                !
 ! D42   D(9,8,10,30)         -118.8411         estimate D2E/DX2                !
 ! D43   D(8,9,11,12)            1.8437         estimate D2E/DX2                !
 ! D44   D(8,9,11,14)         -178.5926         estimate D2E/DX2                !
 ! D45   D(13,9,11,12)        -179.2617         estimate D2E/DX2                !
 ! D46   D(13,9,11,14)           0.302          estimate D2E/DX2                !
 ! D47   D(8,10,12,11)           3.5945         estimate D2E/DX2                !
 ! D48   D(15,10,12,11)       -117.7214         estimate D2E/DX2                !
 ! D49   D(30,10,12,11)        122.4761         estimate D2E/DX2                !
 ! D50   D(8,10,15,16)         171.1531         estimate D2E/DX2                !
 ! D51   D(8,10,15,17)         -61.2065         estimate D2E/DX2                !
 ! D52   D(8,10,15,31)          53.0096         estimate D2E/DX2                !
 ! D53   D(12,10,15,16)        -73.6211         estimate D2E/DX2                !
 ! D54   D(12,10,15,17)         54.0193         estimate D2E/DX2                !
 ! D55   D(12,10,15,31)        168.2354         estimate D2E/DX2                !
 ! D56   D(30,10,15,16)         45.2839         estimate D2E/DX2                !
 ! D57   D(30,10,15,17)        172.9243         estimate D2E/DX2                !
 ! D58   D(30,10,15,31)        -72.8596         estimate D2E/DX2                !
 ! D59   D(9,11,12,10)          -3.4695         estimate D2E/DX2                !
 ! D60   D(14,11,12,10)        176.9235         estimate D2E/DX2                !
 ! D61   D(10,15,16,19)       -117.2684         estimate D2E/DX2                !
 ! D62   D(10,15,16,23)         63.4671         estimate D2E/DX2                !
 ! D63   D(17,15,16,19)        117.1038         estimate D2E/DX2                !
 ! D64   D(17,15,16,23)        -62.1606         estimate D2E/DX2                !
 ! D65   D(31,15,16,19)          0.6756         estimate D2E/DX2                !
 ! D66   D(31,15,16,23)       -178.5889         estimate D2E/DX2                !
 ! D67   D(10,15,17,37)        -73.5956         estimate D2E/DX2                !
 ! D68   D(16,15,17,37)         53.4758         estimate D2E/DX2                !
 ! D69   D(31,15,17,37)        171.0982         estimate D2E/DX2                !
 ! D70   D(15,16,19,20)       -179.4221         estimate D2E/DX2                !
 ! D71   D(15,16,19,38)          0.794          estimate D2E/DX2                !
 ! D72   D(23,16,19,20)         -0.1276         estimate D2E/DX2                !
 ! D73   D(23,16,19,38)       -179.9115         estimate D2E/DX2                !
 ! D74   D(15,16,23,22)        179.0743         estimate D2E/DX2                !
 ! D75   D(15,16,23,41)         -1.5608         estimate D2E/DX2                !
 ! D76   D(19,16,23,22)         -0.1996         estimate D2E/DX2                !
 ! D77   D(19,16,23,41)        179.1653         estimate D2E/DX2                !
 ! D78   D(16,19,20,21)          0.3484         estimate D2E/DX2                !
 ! D79   D(16,19,20,39)       -178.7404         estimate D2E/DX2                !
 ! D80   D(38,19,20,21)       -179.8661         estimate D2E/DX2                !
 ! D81   D(38,19,20,39)          1.0451         estimate D2E/DX2                !
 ! D82   D(19,20,21,22)         -0.2325         estimate D2E/DX2                !
 ! D83   D(19,20,21,24)        179.815          estimate D2E/DX2                !
 ! D84   D(39,20,21,22)        178.853          estimate D2E/DX2                !
 ! D85   D(39,20,21,24)         -1.0995         estimate D2E/DX2                !
 ! D86   D(20,21,22,23)         -0.0949         estimate D2E/DX2                !
 ! D87   D(20,21,22,40)        178.9714         estimate D2E/DX2                !
 ! D88   D(24,21,22,23)        179.8576         estimate D2E/DX2                !
 ! D89   D(24,21,22,40)         -1.0762         estimate D2E/DX2                !
 ! D90   D(20,21,24,25)        -44.9788         estimate D2E/DX2                !
 ! D91   D(20,21,24,29)        135.0105         estimate D2E/DX2                !
 ! D92   D(22,21,24,25)        135.0702         estimate D2E/DX2                !
 ! D93   D(22,21,24,29)        -44.9405         estimate D2E/DX2                !
 ! D94   D(21,22,23,16)          0.3143         estimate D2E/DX2                !
 ! D95   D(21,22,23,41)       -179.0599         estimate D2E/DX2                !
 ! D96   D(40,22,23,16)       -178.7555         estimate D2E/DX2                !
 ! D97   D(40,22,23,41)          1.8702         estimate D2E/DX2                !
 ! D98   D(21,24,25,26)        179.9595         estimate D2E/DX2                !
 ! D99   D(21,24,25,42)         -1.3406         estimate D2E/DX2                !
 ! D100  D(29,24,25,26)         -0.03           estimate D2E/DX2                !
 ! D101  D(29,24,25,42)        178.6699         estimate D2E/DX2                !
 ! D102  D(21,24,29,28)       -179.9585         estimate D2E/DX2                !
 ! D103  D(21,24,29,46)         -1.1651         estimate D2E/DX2                !
 ! D104  D(25,24,29,28)          0.031          estimate D2E/DX2                !
 ! D105  D(25,24,29,46)        178.8244         estimate D2E/DX2                !
 ! D106  D(24,25,26,27)          0.008          estimate D2E/DX2                !
 ! D107  D(24,25,26,43)        179.541          estimate D2E/DX2                !
 ! D108  D(42,25,26,27)       -178.6921         estimate D2E/DX2                !
 ! D109  D(42,25,26,43)          0.8409         estimate D2E/DX2                !
 ! D110  D(25,26,27,28)          0.0136         estimate D2E/DX2                !
 ! D111  D(25,26,27,44)        179.975          estimate D2E/DX2                !
 ! D112  D(43,26,27,28)       -179.5174         estimate D2E/DX2                !
 ! D113  D(43,26,27,44)          0.4439         estimate D2E/DX2                !
 ! D114  D(26,27,28,29)         -0.0127         estimate D2E/DX2                !
 ! D115  D(26,27,28,45)       -179.6095         estimate D2E/DX2                !
 ! D116  D(44,27,28,29)       -179.9741         estimate D2E/DX2                !
 ! D117  D(44,27,28,45)          0.4291         estimate D2E/DX2                !
 ! D118  D(27,28,29,24)         -0.01           estimate D2E/DX2                !
 ! D119  D(27,28,29,46)       -178.8039         estimate D2E/DX2                !
 ! D120  D(45,28,29,24)        179.5886         estimate D2E/DX2                !
 ! D121  D(45,28,29,46)          0.7946         estimate D2E/DX2                !
 --------------------------------------------------------------------------------
 Trust Radius=3.00D-01 FncErr=1.00D-07 GrdErr=1.00D-06
 Number of steps in this run=    260 maximum allowed number of steps=    276.
 GradGradGradGradGradGradGradGradGradGradGradGradGradGradGradGradGradGrad

 Leave Link  103 at Fri Jul 05 09:27:44 2019, MaxMem=   209715200 cpu:         0.0
 (Enter C:\G09W\l202.exe)
                          Input orientation:                          
 ---------------------------------------------------------------------
 Center     Atomic      Atomic             Coordinates (Angstroms)
 Number     Number       Type             X           Y           Z
 ---------------------------------------------------------------------
      1          6           0        2.755712    0.934687   -1.106470
      2          6           0        3.111786    0.389854    0.118596
      3          6           0        3.294728    1.225540    1.211955
      4          6           0        3.118149    2.591499    1.086059
      5          6           0        2.739300    3.117816   -0.136080
      6          6           0        2.553809    2.298975   -1.233321
      7          7           0        3.333659   -1.002673    0.271860
      8          6           0        2.497731   -1.995711   -0.107798
      9          6           0        2.789764   -3.282065   -0.296422
     10          6           0        1.004857   -1.826328   -0.311340
     11          6           0        1.576639   -4.021371   -0.630652
     12          8           0        0.569023   -3.119132   -0.672559
     13         17           0        4.331065   -4.025973   -0.152488
     14          8           0        1.411138   -5.168770   -0.845933
     15          6           0        0.261878   -1.369444    0.958578
     16          6           0       -1.187204   -0.999439    0.685615
     17          8           0        0.414584   -2.323640    1.965767
     18         35           0        2.477038    4.986491   -0.307982
     19          6           0       -1.613631    0.302033    0.905712
     20          6           0       -2.928637    0.672681    0.679485
     21          6           0       -3.862824   -0.253462    0.230965
     22          6           0       -3.433061   -1.560766    0.012608
     23          6           0       -2.119165   -1.928861    0.232030
     24          6           0       -5.280344    0.138973   -0.010263
     25          6           0       -5.969193    0.923566    0.911088
     26          6           0       -7.285509    1.288847    0.686813
     27          6           0       -7.937554    0.876024   -0.463226
     28          6           0       -7.263141    0.094923   -1.386973
     29          6           0       -5.946858   -0.270203   -1.162406
     30          1           0        0.785218   -1.151757   -1.127882
     31          1           0        0.762611   -0.482759    1.321372
     32          1           0        2.652068    0.299716   -1.967594
     33          1           0        3.567039    0.801755    2.161641
     34          1           0        3.261460    3.236800    1.931555
     35          1           0        2.272564    2.718506   -2.180247
     36          1           0        4.261027   -1.285016    0.500824
     37          1           0       -0.114294   -3.082801    1.777839
     38          1           0       -0.914412    1.042344    1.255143
     39          1           0       -3.224123    1.694019    0.839888
     40          1           0       -4.137267   -2.302744   -0.318499
     41          1           0       -1.824464   -2.943719    0.037056
     42          1           0       -5.479451    1.232164    1.817541
     43          1           0       -7.802995    1.889303    1.414166
     44          1           0       -8.960416    1.159419   -0.637434
     45          1           0       -7.758726   -0.225647   -2.286403
     46          1           0       -5.427229   -0.860794   -1.895852
 ---------------------------------------------------------------------
                    Distance matrix (angstroms):
                    1          2          3          4          5
     1  C    0.000000
     2  C    1.387234   0.000000
     3  C    2.397963   1.388262   0.000000
     4  C    2.771925   2.404842   1.383067   0.000000
     5  C    2.389138   2.765028   2.388809   1.383532   0.000000
     6  C    1.384968   2.404945   2.771389   2.404906   1.381610
     7  N    2.446871   1.418397   2.418724   3.691536   4.183074
     8  C    3.106627   2.473709   3.571192   4.780451   5.119308
     9  C    4.293988   3.709303   4.780031   6.043000   6.402088
    10  C    3.364659   3.087954   4.108264   5.092732   5.242477
    11  C    5.116554   4.730429   5.820404   7.003813   7.250129
    12  O    4.626374   4.405060   5.464159   6.496313   6.625514
    13  Cl   5.291499   4.589080   5.523956   6.840767   7.318996
    14  O    6.255233   5.892438   6.976390   8.177301   8.422316
    15  C    3.973997   3.452923   3.999540   4.885039   5.241316
    16  C    4.743311   4.553346   5.031429   5.620610   5.748426
    17  O    5.053337   4.248528   4.632509   5.678181   6.279451
    18  Br   4.139125   4.659822   4.138065   2.844356   1.894803
    19  C    4.851833   4.791329   5.003862   5.259650   5.287908
    20  C    5.964068   6.072997   6.270522   6.356948   6.226503
    21  C    6.856052   7.005117   7.374303   7.586763   7.422148
    22  C    6.766131   6.830166   7.380046   7.830195   7.746566
    23  C    5.809984   5.722950   6.341982   6.970831   7.014922
    24  C    8.149419   8.396868   8.729622   8.817681   8.555935
    25  C    8.955146   9.131105   9.273723   9.240801   9.041523
    26  C   10.206244  10.451545  10.593451  10.492493  10.223457
    27  C   10.712756  11.075324  11.361890  11.294765  10.914571
    28  C   10.057897  10.487747  10.931666  10.959925  10.523851
    29  C    8.785762   9.172550   9.658248   9.768280   9.379838
    30  H    2.869940   3.056663   4.174209   4.935187   4.799100
    31  H    3.446160   2.779703   3.056448   3.880077   4.358395
    32  H    1.074925   2.138143   3.373380   3.846336   3.362104
    33  H    3.369936   2.133296   1.075012   2.135781   3.365830
    34  H    3.845140   3.378509   2.136375   1.073226   2.135866
    35  H    2.137391   3.378105   3.844581   3.376374   2.134458
    36  H    3.126731   2.066892   2.782505   4.083631   4.701726
    37  H    5.718075   5.021953   5.522994   6.566957   7.088987
    38  H    4.365618   4.234118   4.213346   4.323195   4.426364
    39  H    6.334297   6.508829   6.546245   6.410186   6.208230
    40  H    7.656044   7.745315   8.368132   8.863829   8.758020
    41  H    6.109640   5.957006   6.705910   7.494563   7.589475
    42  H    8.743926   8.798026   8.795055   8.735078   8.655645
    43  H   10.897302  11.093209  11.119394  10.948613  10.726252
    44  H   11.727666  12.120308  12.394078  12.284666  11.873080
    45  H   10.643873  11.150376  11.684318  11.730994  11.225470
    46  H    8.414713   8.862105   9.491248   9.686775   9.253017
                    6          7          8          9         10
     6  C    0.000000
     7  N    3.711417   0.000000
     8  C    4.440076   1.352420   0.000000
     9  C    5.664050   2.411305   1.332505   0.000000
    10  C    4.501936   2.538080   1.516177   2.303321   0.000000
    11  C    6.423772   3.607518   2.285845   1.459437   2.290657
    12  O    5.797388   3.607567   2.302378   2.258255   1.411302
    13  Cl   6.658213   3.211734   2.735886   1.717476   3.990906
    14  O    7.564587   4.722490   3.434215   2.400464   3.409219
    15  C    4.849192   3.168902   2.555075   3.409304   1.540601
    16  C    5.343878   4.539758   3.898821   4.689462   2.546134
    17  O    6.014900   3.624262   2.957484   3.417244   2.404362
    18  Br   2.843394   6.077837   6.985102   8.274476   6.970067
    19  C    5.092229   5.155551   4.817689   5.803514   3.587146
    20  C    6.029998   6.495331   6.098000   7.020863   4.764363
    21  C    7.059196   7.235493   6.603548   7.328540   5.144154
    22  C    7.231359   6.794643   5.947938   6.463894   4.457643
    23  C    6.469817   5.531067   4.629868   5.119376   3.172582
    24  C    8.217994   8.693906   8.066278   8.769950   6.592178
    25  C    8.895606   9.521663   9.013829   9.791054   7.595632
    26  C   10.075686  10.871521  10.350435  11.107255   8.912395
    27  C   10.615391  11.450332  10.829052  11.506210   9.343045
    28  C   10.062503  10.781865  10.063879  10.660875   8.556166
    29  C    8.880712   9.419216   8.683355   9.281692   7.174411
    30  H    3.878993   2.911367   2.164609   3.041010   1.081678
    31  H    4.180059   2.825256   2.709648   3.816113   2.128288
    32  H    2.132099   2.678794   2.958318   3.954862   3.158567
    33  H    3.846306   2.623299   3.757604   4.829474   4.425746
    34  H    3.375904   4.553343   5.667576   6.905214   5.979808
    35  H    1.073207   4.581040   5.154570   6.310558   5.074979
    36  H    4.332072   0.996069   1.996177   2.605460   3.399305
    37  H    6.719328   4.299219   3.400010   3.574328   2.682516
    38  H    4.449734   4.816124   4.767610   5.901592   3.790348
    39  H    6.168360   7.113319   6.873997   7.887931   5.621605
    40  H    8.172100   7.606145   6.645439   6.995950   5.164152
    41  H    6.947588   5.516251   4.427310   4.638619   3.061862
    42  H    8.659048   9.222502   8.818250   9.655414   7.478821
    43  H   10.697682  11.562588  11.113715  11.911159   9.713987
    44  H   11.585812  12.515819  11.896407  12.566217  10.408059
    45  H   10.669165  11.410061  10.633643  11.161199   9.124880
    46  H    8.609300   9.026199   8.203058   8.714339   6.694376
                   11         12         13         14         15
    11  C    0.000000
    12  O    1.353175   0.000000
    13  Cl   2.795626   3.904586   0.000000
    14  O    1.179093   2.222663   3.211359   0.000000
    15  C    3.359608   2.411712   4.984967   4.360268   0.000000
    16  C    4.301565   3.069539   6.349301   5.145905   1.520280
    17  O    3.312711   2.759968   4.766945   4.122322   1.395793
    18  Br   9.058499   8.335140   9.202505  10.225207   6.849016
    19  C    5.588386   4.354226   7.429053   6.492085   2.512800
    20  C    6.636874   5.332869   8.687508   7.435260   3.798362
    21  C    6.672876   5.354408   9.028770   7.289351   4.334513
    22  C    5.618314   4.349096   8.147770   6.100906   3.818905
    23  C    4.333796   3.075936   6.793467   4.911421   2.551506
    24  C    8.044350   6.728223  10.475981   8.581749   5.824963
    25  C    9.152538   7.848542  11.477127   9.730003   6.639759
    26  C   10.414979   9.108888  12.802208  10.939918   8.006461
    27  C   10.701980   9.400369  13.215337  11.139302   8.619416
    28  C    9.780471   8.496077  12.366542  10.160822   8.016975
    29  C    8.423600   7.128327  10.989151   8.845124   6.652466
    30  H    3.017991   2.030917   4.667498   4.075250   2.162079
    31  H    4.122477   3.311148   5.240276   5.203508   1.081001
    32  H    4.649275   4.207697   4.982492   5.718599   4.130567
    33  H    5.917866   5.691585   5.407947   7.024285   4.133468
    34  H    7.879376   7.377567   7.631197   9.043878   5.582263
    35  H    6.950647   6.265237   7.337386   8.045593   5.532307
    36  H    3.996726   4.286222   2.818611   5.001916   4.026147
    37  H    3.088850   2.544149   4.937302   3.682715   1.936049
    38  H    5.950022   4.820218   7.428613   6.957057   2.699691
    39  H    7.607594   6.312042   9.528063   8.451361   4.642316
    40  H    5.974934   4.789678   8.643479   6.267144   4.674874
    41  H    3.629693   2.502619   6.252818   4.024878   2.771348
    42  H    9.131357   7.856107  11.303771   9.774777   6.361528
    43  H   11.273637   9.976449  13.589713  11.824749   8.710291
    44  H   11.741812  10.445929  14.275396  12.151485   9.695004
    45  H   10.212643   8.962597  12.851425  10.516455   8.727443
    46  H    7.787435   6.523157  10.405863   8.150107   6.385330
                   16         17         18         19         20
    16  C    0.000000
    17  O    2.440906   0.000000
    18  Br   7.088389   7.928535   0.000000
    19  C    1.387124   3.483035   6.336464   0.000000
    20  C    2.414252   4.670074   6.986084   1.384846   0.000000
    21  C    2.814628   5.058794   8.242659   2.413033   1.389826
    22  C    2.410788   4.381915   8.826020   2.752813   2.384838
    23  C    1.392162   3.095412   8.320985   2.384596   2.761065
    24  C    4.305116   6.511633   9.152270   3.782907   2.508211
    25  C    5.159090   7.239427   9.451577   4.399688   3.059667
    26  C    6.513492   8.601001  10.486635   5.761243   4.400233
    27  C    7.099607   9.268013  11.197489   6.495803   5.141633
    28  C    6.512316   8.719964  10.952751   6.100513   4.836525
    29  C    5.157642   7.380380   9.966188   4.835434   3.659406
    30  H    2.683733   3.328865   6.419702   3.464605   4.515293
    31  H    2.114929   1.981214   5.958754   2.536769   3.920762
    32  H    4.844309   5.230646   4.975018   5.143159   6.187924
    33  H    5.293938   4.443471   4.979875   5.354103   6.663877
    34  H    6.268070   6.246949   2.948264   5.782017   6.816134
    35  H    5.831490   6.787102   2.948040   5.519511   6.278213
    36  H    5.458839   4.244988   6.570280   6.098710   7.453574
    37  H    2.585437   0.944116   8.728065   3.803382   4.819808
    38  H    2.137207   3.687962   5.431536   1.076601   2.127237
    39  H    3.380467   5.536188   6.682905   2.129705   1.075255
    40  H    3.377828   5.092902   9.842870   3.827832   3.363021
    41  H    2.146382   3.019563   9.028300   3.366589   3.835396
    42  H    4.968369   6.885155   9.050886   4.079355   2.848657
    43  H    7.255640   9.251041  10.873704   6.409850   5.077331
    44  H    8.175203  10.334359  12.065255   7.555902   6.193024
    45  H    7.253726   9.449102  11.655531   6.944799   5.738749
    46  H    4.965985   7.153936   9.959393   4.872828   3.902162
                   21         22         23         24         25
    21  C    0.000000
    22  C    1.393348   0.000000
    23  C    2.418121   1.382014   0.000000
    24  C    1.490490   2.510396   3.785194   0.000000
    25  C    2.506941   3.662122   4.839440   1.392475   0.000000
    26  C    3.781704   4.839029   6.103407   2.414293   1.384347
    27  C    4.284981   5.143425   6.496492   2.794492   2.401134
    28  C    3.781700   4.401096   5.759979   2.414281   2.764423
    29  C    2.506982   3.060292   4.398503   1.392515   2.392689
    30  H    4.925210   4.388836   3.299802   6.301278   7.354348
    31  H    4.757753   4.525332   3.403309   6.219092   6.889359
    32  H    6.898078   6.664187   5.706975   8.171912   9.110551
    33  H    7.748797   7.694235   6.596406   9.134147   9.618651
    34  H    8.113529   8.456690   7.650070   9.291373   9.570651
    35  H    7.231149   7.461564   6.834061   8.270988   8.983581
    36  H    8.193527   7.714492   6.418227   9.660575  10.473946
    37  H    4.944639   4.055471   2.782195   6.345487   7.147173
    38  H    3.379525   3.829317   3.365449   4.634511   5.067869
    39  H    2.138085   3.364769   3.836103   2.714585   2.852030
    40  H    2.139343   1.075207   2.124996   2.713598   3.908569
    41  H    3.380828   2.121495   1.074616   4.631235   5.735730
    42  H    2.708836   3.904607   4.878263   2.139060   1.075517
    43  H    4.638572   5.741399   6.948507   3.384734   2.132737
    44  H    5.360578   6.194644   7.556200   3.870088   3.376531
    45  H    4.638531   5.077339   6.406878   3.384692   3.840191
    46  H    2.709163   2.847611   4.075774   2.139288   3.369952
                   26         27         28         29         30
    26  C    0.000000
    27  C    1.384982   0.000000
    28  C    2.393020   1.385013   0.000000
    29  C    2.764459   2.401158   1.384322   0.000000
    30  H    8.624749   8.980001   8.148461   6.789637   0.000000
    31  H    8.265197   8.984651   8.490085   7.157605   2.539078
    32  H   10.333426  10.711459   9.934306   8.655326   2.509386
    33  H   10.963128  11.800470  11.418628  10.134723   4.730296
    34  H   10.797336  11.692996  11.473938  10.327864   5.895029
    35  H   10.080710  10.516150   9.921801   8.804958   4.277687
    36  H   11.831393  12.425975  11.759016  10.392165   3.840793
    37  H    8.469237   9.049755   8.439193   7.111579   3.602953
    38  H    6.401144   7.232218   6.941523   5.735228   3.658091
    39  H    4.084416   4.958191   4.881566   3.909045   5.295788
    40  H    4.880738   4.956581   4.081854   2.849214   5.119642
    41  H    6.939727   7.225689   6.390650   5.057720   3.373225
    42  H    2.131573   3.372092   3.839763   3.369816   7.321521
    43  H    1.075817   2.137625   3.370107   3.840239   9.458724
    44  H    2.139087   1.075596   2.139089   3.376529  10.027934
    45  H    3.370110   2.137670   1.075799   2.132656   8.671726
    46  H    3.839833   3.372045   2.131414   1.075525   6.266493
                   31         32         33         34         35
    31  H    0.000000
    32  H    3.872933   0.000000
    33  H    3.197006   4.259084   0.000000
    34  H    4.522354   4.919470   2.464906   0.000000
    35  H    4.978895   2.457598   4.919511   4.260688   0.000000
    36  H    3.681824   3.345626   2.755820   4.846952   5.212515
    37  H    2.781644   5.755211   5.365565   7.166359   7.417459
    38  H    2.267759   4.863878   4.578540   4.765614   4.976770
    39  H    4.567739   6.660004   6.975890   6.755346   6.354869
    40  H    5.478168   7.455695   8.668641   9.512647   8.352544
    41  H    3.794568   5.880292   6.900054   8.225239   7.332316
    42  H    6.492340   9.017666   9.063258   8.968561   8.847896
    43  H    8.888470  11.102767  11.446360  11.158208  10.729598
    44  H   10.053404  11.719991  12.841335  12.660548  11.445124
    45  H    9.257177  10.428915  12.211208  12.297325  10.454955
    46  H    6.986241   8.162535  10.006207  10.340824   8.495827
                   36         37         38         39         40
    36  H    0.000000
    37  H    4.899616   0.000000
    38  H    5.724576   4.234409   0.000000
    39  H    8.063317   5.776573   2.435546   0.000000
    40  H    8.499318   4.602981   4.904361   4.260259   0.000000
    41  H    6.324522   2.444248   4.266220   4.910417   2.426175
    42  H   10.146273   6.885159   4.603467   2.501124   4.342776
    43  H   12.508042   9.163525   6.942277   4.618874   5.832062
    44  H   13.493608  10.103655   8.266422   5.947549   5.945676
    45  H   12.384077   9.116948   7.809929   5.832790   4.615403
    46  H    9.989311   6.830856   5.823763   4.343388   2.496250
                   41         42         43         44         45
    41  H    0.000000
    42  H    5.828126   0.000000
    43  H    7.810081   2.448142   0.000000
    44  H    8.259085   4.260201   2.466053   0.000000
    45  H    6.928336   4.915553   4.262533   2.466083   0.000000
    46  H    4.588532   4.262920   4.915640   4.260081   2.447819
                   46
    46  H    0.000000
 Stoichiometry    C23H17BrClNO3
 Framework group  C1[X(C23H17BrClNO3)]
 Deg. of freedom   132
 Full point group                 C1      NOp   1
 Largest Abelian subgroup         C1      NOp   1
 Largest concise Abelian subgroup C1      NOp   1
                         Standard orientation:                         
 ---------------------------------------------------------------------
 Center     Atomic      Atomic             Coordinates (Angstroms)
 Number     Number       Type             X           Y           Z
 ---------------------------------------------------------------------
      1          6           0        2.755712    0.934687   -1.106470
      2          6           0        3.111786    0.389854    0.118596
      3          6           0        3.294728    1.225540    1.211955
      4          6           0        3.118149    2.591499    1.086059
      5          6           0        2.739300    3.117816   -0.136080
      6          6           0        2.553809    2.298975   -1.233321
      7          7           0        3.333659   -1.002673    0.271860
      8          6           0        2.497731   -1.995711   -0.107798
      9          6           0        2.789764   -3.282065   -0.296422
     10          6           0        1.004857   -1.826328   -0.311340
     11          6           0        1.576639   -4.021371   -0.630652
     12          8           0        0.569023   -3.119132   -0.672559
     13         17           0        4.331065   -4.025973   -0.152488
     14          8           0        1.411138   -5.168770   -0.845933
     15          6           0        0.261878   -1.369444    0.958578
     16          6           0       -1.187204   -0.999439    0.685615
     17          8           0        0.414584   -2.323640    1.965767
     18         35           0        2.477038    4.986491   -0.307982
     19          6           0       -1.613631    0.302033    0.905712
     20          6           0       -2.928637    0.672681    0.679485
     21          6           0       -3.862824   -0.253462    0.230965
     22          6           0       -3.433061   -1.560766    0.012608
     23          6           0       -2.119165   -1.928861    0.232030
     24          6           0       -5.280344    0.138973   -0.010263
     25          6           0       -5.969193    0.923566    0.911088
     26          6           0       -7.285509    1.288847    0.686813
     27          6           0       -7.937554    0.876024   -0.463226
     28          6           0       -7.263141    0.094923   -1.386973
     29          6           0       -5.946858   -0.270203   -1.162406
     30          1           0        0.785218   -1.151757   -1.127882
     31          1           0        0.762611   -0.482759    1.321372
     32          1           0        2.652068    0.299716   -1.967594
     33          1           0        3.567039    0.801755    2.161641
     34          1           0        3.261460    3.236800    1.931555
     35          1           0        2.272564    2.718506   -2.180247
     36          1           0        4.261027   -1.285016    0.500824
     37          1           0       -0.114294   -3.082801    1.777839
     38          1           0       -0.914412    1.042344    1.255143
     39          1           0       -3.224123    1.694019    0.839888
     40          1           0       -4.137267   -2.302744   -0.318499
     41          1           0       -1.824464   -2.943719    0.037056
     42          1           0       -5.479451    1.232164    1.817541
     43          1           0       -7.802995    1.889303    1.414166
     44          1           0       -8.960416    1.159419   -0.637434
     45          1           0       -7.758726   -0.225647   -2.286403
     46          1           0       -5.427229   -0.860794   -1.895852
 ---------------------------------------------------------------------
 Rotational constants (GHZ):      0.1144937      0.0771744      0.0487072
 Leave Link  202 at Fri Jul 05 09:27:44 2019, MaxMem=   209715200 cpu:         0.0
 (Enter C:\G09W\l301.exe)
 Standard basis: 6-311++G(d,p) (5D, 7F)
 Ernie: Thresh=  0.10000D-02 Tol=  0.10000D-05 Strict=F.
 There are   822 symmetry adapted cartesian basis functions of A   symmetry.
 There are   791 symmetry adapted basis functions of A   symmetry.
   791 basis functions,  1272 primitive gaussians,   822 cartesian basis functions
   119 alpha electrons      119 beta electrons
       nuclear repulsion energy      3129.3572164908 Hartrees.
 IExCor=  402 DFT=T Ex+Corr=B3LYP ExCW=0 ScaHFX=  0.200000
 ScaDFX=  0.800000  0.720000  1.000000  0.810000 ScalE2=  1.000000  1.000000
 IRadAn=      0 IRanWt=     -1 IRanGd=            0 ICorTp=0 IEmpDi=  4
 NAtoms=   46 NActive=   46 NUniq=   46 SFac= 1.00D+00 NAtFMM=   60 NAOKFM=F Big=F
 Integral buffers will be    262144 words long.
 Raffenetti 2 integral format.
 Two-electron integral symmetry is turned on.
 Leave Link  301 at Fri Jul 05 09:27:44 2019, MaxMem=   209715200 cpu:         0.0
 (Enter C:\G09W\l302.exe)
 NPDir=0 NMtPBC=     1 NCelOv=     1 NCel=       1 NClECP=     1 NCelD=      1
         NCelK=      1 NCelE2=     1 NClLst=     1 CellRange=     0.0.
 One-electron integrals computed using PRISM.
 NBasis=   791 RedAO= T EigKep=  1.22D-06  NBF=   791
 NBsUse=   784 1.00D-06 EigRej=  9.33D-07 NBFU=   784
 Precomputing XC quadrature grid using
 IXCGrd= 4 IRadAn=           0 IRanWt=          -1 IRanGd=           0 AccXCQ= 0.00D+00.
 Generated NRdTot=       0 NPtTot=           0 NUsed=           0 NTot=          16
 NSgBfM=   778   781   787   787   787 MxSgAt=    46 MxSgA2=    46.
 Leave Link  302 at Fri Jul 05 09:27:50 2019, MaxMem=   209715200 cpu:         6.0
 (Enter C:\G09W\l303.exe)
 DipDrv:  MaxL=1.
 Leave Link  303 at Fri Jul 05 09:27:50 2019, MaxMem=   209715200 cpu:         0.0
 (Enter C:\G09W\l401.exe)
 ExpMin= 3.50D-02 ExpMax= 4.40D+05 ExpMxC= 1.51D+04 IAcc=3 IRadAn=         5 AccDes= 0.00D+00
 Harris functional with IExCor=  402 and IRadAn=       5 diagonalized for initial guess.
 HarFok:  IExCor=  402 AccDes= 0.00D+00 IRadAn=         5 IDoV= 1 UseB2=F ITyADJ=14
 ICtDFT=  3500011 ScaDFX=  1.000000  1.000000  1.000000  1.000000
 FoFCou: FMM=F IPFlag=           0 FMFlag=      100000 FMFlg1=           0
         NFxFlg=           0 DoJE=T BraDBF=F KetDBF=T FulRan=T
         wScrn=  0.000000 ICntrl=     500 IOpCl=  0 I1Cent=   200000004 NGrid=           0
         NMat0=    1 NMatS0=      1 NMatT0=    0 NMatD0=    1 NMtDS0=    0 NMtDT0=    0
 Petite list used in FoFCou.
 Harris En= -4201.83879603793    
 JPrj=0 DoOrth=F DoCkMO=F.
 Leave Link  401 at Fri Jul 05 09:28:46 2019, MaxMem=   209715200 cpu:        56.0
 (Enter C:\G09W\l502.exe)
 Closed shell SCF:
 Using DIIS extrapolation, IDIIS=  1040.
 Integral symmetry usage will be decided dynamically.
 IVT=     2055526 IEndB=     2055526 NGot=   209715200 MDV=   208352821
 LenX=   208352821 LenY=   207676315
 Requested convergence on RMS density matrix=1.00D-08 within 128 cycles.
 Requested convergence on MAX density matrix=1.00D-06.
 Requested convergence on             energy=1.00D-06.
 No special actions if energy rises.
 Fock matrices will be formed incrementally for  20 cycles.

 Cycle   1  Pass 1  IDiag  1:
 FoFJK:  IHMeth= 1 ICntrl=       0 DoSepK=F KAlg= 0 I1Cent=   0 FoldK=F
 IRaf= 730000000 NMat=   1 IRICut=       1 DoRegI=T DoRafI=F ISym2E= 0.
 FoFCou: FMM=F IPFlag=           0 FMFlag=      100000 FMFlg1=           0
         NFxFlg=           0 DoJE=F BraDBF=F KetDBF=F FulRan=T
         wScrn=  0.000000 ICntrl=       0 IOpCl=  0 I1Cent=           0 NGrid=           0
         NMat0=    1 NMatS0=      1 NMatT0=    0 NMatD0=    1 NMtDS0=    0 NMtDT0=    0
 Symmetry not used in FoFCou.
 E= -4201.11043513549    
 DIIS: error= 6.75D-02 at cycle   1 NSaved=   1.
 NSaved= 1 IEnMin= 1 EnMin= -4201.11043513549     IErMin= 1 ErrMin= 6.75D-02
 ErrMax= 6.75D-02  0.00D+00 EMaxC= 1.00D-01 BMatC= 1.95D+00 BMatP= 1.95D+00
 IDIUse=3 WtCom= 3.25D-01 WtEn= 6.75D-01
 Coeff-Com:  0.100D+01
 Coeff-En:   0.100D+01
 Coeff:      0.100D+01
 Gap=     0.341 Goal=   None    Shift=    0.000
 GapD=    0.341 DampG=1.000 DampE=0.500 DampFc=0.5000 IDamp=-1.
 Damping current iteration by 5.00D-01
 RMSDP=2.78D-02 MaxDP=2.46D+00              OVMax= 2.37D-01

 Cycle   2  Pass 1  IDiag  1:
 RMSU=  1.38D-02    CP:  9.67D-01
 E= -4201.36594504288     Delta-E=       -0.255509907385 Rises=F Damp=T
 DIIS: error= 3.34D-02 at cycle   2 NSaved=   2.
 NSaved= 2 IEnMin= 2 EnMin= -4201.36594504288     IErMin= 2 ErrMin= 3.34D-02
 ErrMax= 3.34D-02  0.00D+00 EMaxC= 1.00D-01 BMatC= 2.66D-01 BMatP= 1.95D+00
 IDIUse=3 WtCom= 6.66D-01 WtEn= 3.34D-01
 Coeff-Com: -0.114D+00 0.111D+01
 Coeff-En:   0.207D+00 0.793D+00
 Coeff:     -0.707D-02 0.101D+01
 Gap=     0.241 Goal=   None    Shift=    0.000
 RMSDP=1.32D-02 MaxDP=1.79D+00 DE=-2.56D-01 OVMax= 1.78D-01

 Cycle   3  Pass 1  IDiag  1:
 RMSU=  8.34D-03    CP:  9.42D-01  2.63D-01
 E= -4201.63879270736     Delta-E=       -0.272847664481 Rises=F Damp=F
 DIIS: error= 1.15D-02 at cycle   3 NSaved=   3.
 NSaved= 3 IEnMin= 3 EnMin= -4201.63879270736     IErMin= 3 ErrMin= 1.15D-02
 ErrMax= 1.15D-02  0.00D+00 EMaxC= 1.00D-01 BMatC= 1.92D-01 BMatP= 2.66D-01
 IDIUse=3 WtCom= 8.85D-01 WtEn= 1.15D-01
 Coeff-Com: -0.167D+00 0.578D+00 0.589D+00
 Coeff-En:   0.000D+00 0.000D+00 0.100D+01
 Coeff:     -0.148D+00 0.512D+00 0.636D+00
 Gap=     0.198 Goal=   None    Shift=    0.000
 RMSDP=6.06D-03 MaxDP=5.72D-01 DE=-2.73D-01 OVMax= 1.24D-01

 Cycle   4  Pass 1  IDiag  1:
 RMSU=  5.37D-03    CP:  9.12D-01  4.17D-01  8.68D-01
 E= -4201.71304594474     Delta-E=       -0.074253237386 Rises=F Damp=F
 DIIS: error= 8.03D-03 at cycle   4 NSaved=   4.
 NSaved= 4 IEnMin= 4 EnMin= -4201.71304594474     IErMin= 4 ErrMin= 8.03D-03
 ErrMax= 8.03D-03  0.00D+00 EMaxC= 1.00D-01 BMatC= 8.62D-02 BMatP= 1.92D-01
 IDIUse=3 WtCom= 9.20D-01 WtEn= 8.03D-02
 Coeff-Com: -0.908D-01 0.238D+00 0.440D+00 0.413D+00
 Coeff-En:   0.000D+00 0.000D+00 0.353D+00 0.647D+00
 Coeff:     -0.835D-01 0.219D+00 0.433D+00 0.432D+00
 Gap=     0.185 Goal=   None    Shift=    0.000
 RMSDP=4.22D-03 MaxDP=4.31D-01 DE=-7.43D-02 OVMax= 6.83D-02

 Cycle   5  Pass 1  IDiag  1:
 RMSU=  2.34D-03    CP:  8.65D-01  5.02D-01  7.22D-01  6.30D-01
 E= -4201.77967744499     Delta-E=       -0.066631500251 Rises=F Damp=F
 DIIS: error= 1.32D-03 at cycle   5 NSaved=   5.
 NSaved= 5 IEnMin= 5 EnMin= -4201.77967744499     IErMin= 5 ErrMin= 1.32D-03
 ErrMax= 1.32D-03  0.00D+00 EMaxC= 1.00D-01 BMatC= 2.78D-03 BMatP= 8.62D-02
 IDIUse=3 WtCom= 9.87D-01 WtEn= 1.32D-02
 Coeff-Com: -0.300D-01 0.720D-01 0.169D+00 0.234D+00 0.555D+00
 Coeff-En:   0.000D+00 0.000D+00 0.000D+00 0.000D+00 0.100D+01
 Coeff:     -0.296D-01 0.711D-01 0.167D+00 0.231D+00 0.561D+00
 Gap=     0.177 Goal=   None    Shift=    0.000
 RMSDP=1.15D-03 MaxDP=1.22D-01 DE=-6.66D-02 OVMax= 1.75D-02

 Cycle   6  Pass 1  IDiag  1:
 RMSU=  7.45D-04    CP:  8.71D-01  4.81D-01  7.83D-01  6.28D-01  7.53D-01
 E= -4201.78186358031     Delta-E=       -0.002186135320 Rises=F Damp=F
 DIIS: error= 4.82D-04 at cycle   6 NSaved=   6.
 NSaved= 6 IEnMin= 6 EnMin= -4201.78186358031     IErMin= 6 ErrMin= 4.82D-04
 ErrMax= 4.82D-04  0.00D+00 EMaxC= 1.00D-01 BMatC= 3.80D-04 BMatP= 2.78D-03
 IDIUse=3 WtCom= 9.95D-01 WtEn= 4.82D-03
 Coeff-Com: -0.824D-02 0.180D-01 0.477D-01 0.885D-01 0.339D+00 0.515D+00
 Coeff-En:   0.000D+00 0.000D+00 0.000D+00 0.000D+00 0.789D-01 0.921D+00
 Coeff:     -0.820D-02 0.179D-01 0.475D-01 0.881D-01 0.338D+00 0.517D+00
 Gap=     0.178 Goal=   None    Shift=    0.000
 RMSDP=5.02D-04 MaxDP=5.38D-02 DE=-2.19D-03 OVMax= 6.56D-03

 Cycle   7  Pass 1  IDiag  1:
 RMSU=  1.55D-04    CP:  8.74D-01  4.70D-01  7.92D-01  6.60D-01  7.36D-01
                    CP:  4.88D-01
 E= -4201.78217246116     Delta-E=       -0.000308880846 Rises=F Damp=F
 DIIS: error= 1.39D-04 at cycle   7 NSaved=   7.
 NSaved= 7 IEnMin= 7 EnMin= -4201.78217246116     IErMin= 7 ErrMin= 1.39D-04
 ErrMax= 1.39D-04  0.00D+00 EMaxC= 1.00D-01 BMatC= 3.41D-05 BMatP= 3.80D-04
 IDIUse=3 WtCom= 9.99D-01 WtEn= 1.39D-03
 Coeff-Com: -0.169D-02 0.337D-02 0.880D-02 0.230D-01 0.131D+00 0.285D+00
 Coeff-Com:  0.550D+00
 Coeff-En:   0.000D+00 0.000D+00 0.000D+00 0.000D+00 0.000D+00 0.316D-01
 Coeff-En:   0.968D+00
 Coeff:     -0.169D-02 0.337D-02 0.879D-02 0.230D-01 0.130D+00 0.285D+00
 Coeff:      0.551D+00
 Gap=     0.178 Goal=   None    Shift=    0.000
 RMSDP=1.18D-04 MaxDP=1.25D-02 DE=-3.09D-04 OVMax= 2.24D-03

 Cycle   8  Pass 1  IDiag  1:
 RMSU=  6.82D-05    CP:  8.74D-01  4.74D-01  7.90D-01  6.60D-01  7.39D-01
                    CP:  5.38D-01  5.73D-01
 E= -4201.78219831285     Delta-E=       -0.000025851687 Rises=F Damp=F
 DIIS: error= 8.40D-05 at cycle   8 NSaved=   8.
 NSaved= 8 IEnMin= 8 EnMin= -4201.78219831285     IErMin= 8 ErrMin= 8.40D-05
 ErrMax= 8.40D-05  0.00D+00 EMaxC= 1.00D-01 BMatC= 8.28D-06 BMatP= 3.41D-05
 IDIUse=1 WtCom= 1.00D+00 WtEn= 0.00D+00
 Coeff-Com:  0.108D-03-0.349D-03-0.981D-03 0.218D-02 0.404D-01 0.117D+00
 Coeff-Com:  0.366D+00 0.475D+00
 Coeff:      0.108D-03-0.349D-03-0.981D-03 0.218D-02 0.404D-01 0.117D+00
 Coeff:      0.366D+00 0.475D+00
 Gap=     0.178 Goal=   None    Shift=    0.000
 RMSDP=5.41D-05 MaxDP=6.40D-03 DE=-2.59D-05 OVMax= 7.64D-04

 Cycle   9  Pass 1  IDiag  1:
 RMSU=  2.13D-05    CP:  8.73D-01  4.74D-01  7.88D-01  6.58D-01  7.49D-01
                    CP:  5.50D-01  6.54D-01  6.83D-01
 E= -4201.78220584184     Delta-E=       -0.000007528990 Rises=F Damp=F
 DIIS: error= 1.93D-05 at cycle   9 NSaved=   9.
 NSaved= 9 IEnMin= 9 EnMin= -4201.78220584184     IErMin= 9 ErrMin= 1.93D-05
 ErrMax= 1.93D-05  0.00D+00 EMaxC= 1.00D-01 BMatC= 3.57D-07 BMatP= 8.28D-06
 IDIUse=1 WtCom= 1.00D+00 WtEn= 0.00D+00
 Coeff-Com:  0.186D-03-0.449D-03-0.876D-03-0.249D-03 0.139D-01 0.435D-01
 Coeff-Com:  0.155D+00 0.251D+00 0.538D+00
 Coeff:      0.186D-03-0.449D-03-0.876D-03-0.249D-03 0.139D-01 0.435D-01
 Coeff:      0.155D+00 0.251D+00 0.538D+00
 Gap=     0.178 Goal=   None    Shift=    0.000
 RMSDP=1.20D-05 MaxDP=1.56D-03 DE=-7.53D-06 OVMax= 1.75D-04

 Cycle  10  Pass 1  IDiag  1:
 RMSU=  6.49D-06    CP:  8.73D-01  4.74D-01  7.88D-01  6.58D-01  7.48D-01
                    CP:  5.56D-01  6.56D-01  6.19D-01  7.38D-01
 E= -4201.78220613930     Delta-E=       -0.000000297461 Rises=F Damp=F
 DIIS: error= 9.31D-06 at cycle  10 NSaved=  10.
 NSaved=10 IEnMin=10 EnMin= -4201.78220613930     IErMin=10 ErrMin= 9.31D-06
 ErrMax= 9.31D-06  0.00D+00 EMaxC= 1.00D-01 BMatC= 5.70D-08 BMatP= 3.57D-07
 IDIUse=1 WtCom= 1.00D+00 WtEn= 0.00D+00
 Coeff-Com:  0.926D-04-0.221D-03-0.319D-03-0.489D-03 0.258D-02 0.920D-02
 Coeff-Com:  0.408D-01 0.814D-01 0.318D+00 0.549D+00
 Coeff:      0.926D-04-0.221D-03-0.319D-03-0.489D-03 0.258D-02 0.920D-02
 Coeff:      0.408D-01 0.814D-01 0.318D+00 0.549D+00
 Gap=     0.178 Goal=   None    Shift=    0.000
 RMSDP=4.47D-06 MaxDP=6.24D-04 DE=-2.97D-07 OVMax= 7.08D-05

 Cycle  11  Pass 1  IDiag  1:
 RMSU=  1.86D-06    CP:  8.73D-01  4.74D-01  7.88D-01  6.58D-01  7.48D-01
                    CP:  5.53D-01  6.59D-01  6.49D-01  7.54D-01  7.06D-01
 E= -4201.78220619304     Delta-E=       -0.000000053747 Rises=F Damp=F
 DIIS: error= 1.71D-06 at cycle  11 NSaved=  11.
 NSaved=11 IEnMin=11 EnMin= -4201.78220619304     IErMin=11 ErrMin= 1.71D-06
 ErrMax= 1.71D-06  0.00D+00 EMaxC= 1.00D-01 BMatC= 4.04D-09 BMatP= 5.70D-08
 IDIUse=1 WtCom= 1.00D+00 WtEn= 0.00D+00
 Coeff-Com:  0.341D-04-0.824D-04-0.106D-03-0.256D-03 0.374D-03 0.187D-02
 Coeff-Com:  0.113D-01 0.273D-01 0.140D+00 0.300D+00 0.520D+00
 Coeff:      0.341D-04-0.824D-04-0.106D-03-0.256D-03 0.374D-03 0.187D-02
 Coeff:      0.113D-01 0.273D-01 0.140D+00 0.300D+00 0.520D+00
 Gap=     0.178 Goal=   None    Shift=    0.000
 RMSDP=1.14D-06 MaxDP=1.51D-04 DE=-5.37D-08 OVMax= 1.88D-05

 Cycle  12  Pass 1  IDiag  1:
 RMSU=  7.08D-07    CP:  8.73D-01  4.74D-01  7.88D-01  6.58D-01  7.48D-01
                    CP:  5.53D-01  6.59D-01  6.52D-01  7.59D-01  7.31D-01
                    CP:  7.79D-01
 E= -4201.78220619657     Delta-E=       -0.000000003523 Rises=F Damp=F
 DIIS: error= 6.47D-07 at cycle  12 NSaved=  12.
 NSaved=12 IEnMin=12 EnMin= -4201.78220619657     IErMin=12 ErrMin= 6.47D-07
 ErrMax= 6.47D-07  0.00D+00 EMaxC= 1.00D-01 BMatC= 5.06D-10 BMatP= 4.04D-09
 IDIUse=1 WtCom= 1.00D+00 WtEn= 0.00D+00
 Coeff-Com:  0.474D-05-0.110D-04-0.180D-04-0.546D-04-0.184D-03-0.375D-03
 Coeff-Com: -0.512D-03 0.126D-02 0.246D-01 0.667D-01 0.276D+00 0.632D+00
 Coeff:      0.474D-05-0.110D-04-0.180D-04-0.546D-04-0.184D-03-0.375D-03
 Coeff:     -0.512D-03 0.126D-02 0.246D-01 0.667D-01 0.276D+00 0.632D+00
 Gap=     0.178 Goal=   None    Shift=    0.000
 RMSDP=5.07D-07 MaxDP=5.06D-05 DE=-3.52D-09 OVMax= 5.35D-06

 Cycle  13  Pass 1  IDiag  1:
 RMSU=  2.45D-07    CP:  8.73D-01  4.74D-01  7.88D-01  6.58D-01  7.48D-01
                    CP:  5.53D-01  6.58D-01  6.50D-01  7.66D-01  7.41D-01
                    CP:  7.68D-01  7.34D-01
 E= -4201.78220619731     Delta-E=       -0.000000000744 Rises=F Damp=F
 DIIS: error= 1.67D-07 at cycle  13 NSaved=  13.
 NSaved=13 IEnMin=13 EnMin= -4201.78220619731     IErMin=13 ErrMin= 1.67D-07
 ErrMax= 1.67D-07  0.00D+00 EMaxC= 1.00D-01 BMatC= 3.16D-11 BMatP= 5.06D-10
 IDIUse=1 WtCom= 1.00D+00 WtEn= 0.00D+00
 Coeff-Com:  0.711D-07-0.157D-06-0.450D-05-0.829D-05-0.110D-03-0.253D-03
 Coeff-Com: -0.812D-03-0.101D-02 0.258D-02 0.103D-01 0.927D-01 0.277D+00
 Coeff-Com:  0.620D+00
 Coeff:      0.711D-07-0.157D-06-0.450D-05-0.829D-05-0.110D-03-0.253D-03
 Coeff:     -0.812D-03-0.101D-02 0.258D-02 0.103D-01 0.927D-01 0.277D+00
 Coeff:      0.620D+00
 Gap=     0.178 Goal=   None    Shift=    0.000
 RMSDP=1.16D-07 MaxDP=1.50D-05 DE=-7.44D-10 OVMax= 1.55D-06

 Cycle  14  Pass 1  IDiag  1:
 RMSU=  4.78D-08    CP:  8.73D-01  4.74D-01  7.88D-01  6.58D-01  7.48D-01
                    CP:  5.53D-01  6.58D-01  6.50D-01  7.66D-01  7.37D-01
                    CP:  7.89D-01  7.49D-01  8.07D-01
 E= -4201.78220619719     Delta-E=        0.000000000120 Rises=F Damp=F
 DIIS: error= 9.54D-08 at cycle  14 NSaved=  14.
 NSaved=14 IEnMin=13 EnMin= -4201.78220619731     IErMin=14 ErrMin= 9.54D-08
 ErrMax= 9.54D-08  0.00D+00 EMaxC= 1.00D-01 BMatC= 7.86D-12 BMatP= 3.16D-11
 IDIUse=1 WtCom= 1.00D+00 WtEn= 0.00D+00
 Coeff-Com: -0.538D-06 0.122D-05-0.102D-05 0.156D-05-0.497D-04-0.118D-03
 Coeff-Com: -0.458D-03-0.830D-03-0.162D-02-0.216D-02 0.226D-01 0.888D-01
 Coeff-Com:  0.388D+00 0.506D+00
 Coeff:     -0.538D-06 0.122D-05-0.102D-05 0.156D-05-0.497D-04-0.118D-03
 Coeff:     -0.458D-03-0.830D-03-0.162D-02-0.216D-02 0.226D-01 0.888D-01
 Coeff:      0.388D+00 0.506D+00
 Gap=     0.178 Goal=   None    Shift=    0.000
 RMSDP=3.19D-08 MaxDP=2.74D-06 DE= 1.20D-10 OVMax= 7.11D-07

 Cycle  15  Pass 1  IDiag  1:
 RMSU=  1.83D-08    CP:  8.73D-01  4.74D-01  7.88D-01  6.58D-01  7.48D-01
                    CP:  5.53D-01  6.58D-01  6.50D-01  7.65D-01  7.38D-01
                    CP:  7.93D-01  7.47D-01  8.21D-01  7.00D-01
 E= -4201.78220619776     Delta-E=       -0.000000000573 Rises=F Damp=F
 DIIS: error= 2.97D-08 at cycle  15 NSaved=  15.
 NSaved=15 IEnMin=15 EnMin= -4201.78220619776     IErMin=15 ErrMin= 2.97D-08
 ErrMax= 2.97D-08  0.00D+00 EMaxC= 1.00D-01 BMatC= 4.82D-13 BMatP= 7.86D-12
 IDIUse=1 WtCom= 1.00D+00 WtEn= 0.00D+00
 Coeff-Com: -0.310D-06 0.704D-06-0.359D-07 0.147D-05-0.180D-04-0.452D-04
 Coeff-Com: -0.185D-03-0.374D-03-0.109D-02-0.186D-02 0.417D-02 0.239D-01
 Coeff-Com:  0.158D+00 0.270D+00 0.548D+00
 Coeff:     -0.310D-06 0.704D-06-0.359D-07 0.147D-05-0.180D-04-0.452D-04
 Coeff:     -0.185D-03-0.374D-03-0.109D-02-0.186D-02 0.417D-02 0.239D-01
 Coeff:      0.158D+00 0.270D+00 0.548D+00
 Gap=     0.178 Goal=   None    Shift=    0.000
 RMSDP=1.29D-08 MaxDP=9.73D-07 DE=-5.73D-10 OVMax= 2.23D-07

 Cycle  16  Pass 1  IDiag  1:
 RMSU=  5.91D-09    CP:  8.73D-01  4.74D-01  7.88D-01  6.58D-01  7.48D-01
                    CP:  5.53D-01  6.58D-01  6.50D-01  7.65D-01  7.38D-01
                    CP:  7.92D-01  7.46D-01  8.35D-01  7.72D-01  7.99D-01
 E= -4201.78220619677     Delta-E=        0.000000000995 Rises=F Damp=F
 DIIS: error= 1.49D-08 at cycle  16 NSaved=  16.
 NSaved=16 IEnMin=15 EnMin= -4201.78220619776     IErMin=16 ErrMin= 1.49D-08
 ErrMax= 1.49D-08  0.00D+00 EMaxC= 1.00D-01 BMatC= 1.13D-13 BMatP= 4.82D-13
 IDIUse=1 WtCom= 1.00D+00 WtEn= 0.00D+00
 Coeff-Com: -0.935D-07 0.212D-06 0.157D-06 0.507D-06-0.233D-05-0.741D-05
 Coeff-Com: -0.318D-04-0.832D-04-0.378D-03-0.715D-03-0.124D-02 0.187D-03
 Coeff-Com:  0.328D-01 0.817D-01 0.344D+00 0.544D+00
 Coeff:     -0.935D-07 0.212D-06 0.157D-06 0.507D-06-0.233D-05-0.741D-05
 Coeff:     -0.318D-04-0.832D-04-0.378D-03-0.715D-03-0.124D-02 0.187D-03
 Coeff:      0.328D-01 0.817D-01 0.344D+00 0.544D+00
 Gap=     0.178 Goal=   None    Shift=    0.000
 RMSDP=7.62D-09 MaxDP=9.12D-07 DE= 9.95D-10 OVMax= 1.06D-07

 SCF Done:  E(RB3LYP) =  -4201.78220620     A.U. after   16 cycles
            NFock= 16  Conv=0.76D-08     -V/T= 2.0019
 KE= 4.193815646367D+03 PE=-1.622306260790D+04 EE= 4.698107538843D+03
 Leave Link  502 at Fri Jul 05 10:14:41 2019, MaxMem=   209715200 cpu:      2755.0
 (Enter C:\G09W\l601.exe)
 Copying SCF densities to generalized density rwf, IOpCl= 0 IROHF=0.

 **********************************************************************

            Population analysis using the SCF density.

 **********************************************************************

 Orbital symmetries:
       Occupied  (A) (A) (A) (A) (A) (A) (A) (A) (A) (A) (A) (A)
                 (A) (A) (A) (A) (A) (A) (A) (A) (A) (A) (A) (A)
                 (A) (A) (A) (A) (A) (A) (A) (A) (A) (A) (A) (A)
                 (A) (A) (A) (A) (A) (A) (A) (A) (A) (A) (A) (A)
                 (A) (A) (A) (A) (A) (A) (A) (A) (A) (A) (A) (A)
                 (A) (A) (A) (A) (A) (A) (A) (A) (A) (A) (A) (A)
                 (A) (A) (A) (A) (A) (A) (A) (A) (A) (A) (A) (A)
                 (A) (A) (A) (A) (A) (A) (A) (A) (A) (A) (A) (A)
                 (A) (A) (A) (A) (A) (A) (A) (A) (A) (A) (A) (A)
                 (A) (A) (A) (A) (A) (A) (A) (A) (A) (A) (A)
       Virtual   (A) (A) (A) (A) (A) (A) (A) (A) (A) (A) (A) (A)
                 (A) (A) (A) (A) (A) (A) (A) (A) (A) (A) (A) (A)
                 (A) (A) (A) (A) (A) (A) (A) (A) (A) (A) (A) (A)
                 (A) (A) (A) (A) (A) (A) (A) (A) (A) (A) (A) (A)
                 (A) (A) (A) (A) (A) (A) (A) (A) (A) (A) (A) (A)
                 (A) (A) (A) (A) (A) (A) (A) (A) (A) (A) (A) (A)
                 (A) (A) (A) (A) (A) (A) (A) (A) (A) (A) (A) (A)
                 (A) (A) (A) (A) (A) (A) (A) (A) (A) (A) (A) (A)
                 (A) (A) (A) (A) (A) (A) (A) (A) (A) (A) (A) (A)
                 (A) (A) (A) (A) (A) (A) (A) (A) (A) (A) (A) (A)
                 (A) (A) (A) (A) (A) (A) (A) (A) (A) (A) (A) (A)
                 (A) (A) (A) (A) (A) (A) (A) (A) (A) (A) (A) (A)
                 (A) (A) (A) (A) (A) (A) (A) (A) (A) (A) (A) (A)
                 (A) (A) (A) (A) (A) (A) (A) (A) (A) (A) (A) (A)
                 (A) (A) (A) (A) (A) (A) (A) (A) (A) (A) (A) (A)
                 (A) (A) (A) (A) (A) (A) (A) (A) (A) (A) (A) (A)
                 (A) (A) (A) (A) (A) (A) (A) (A) (A) (A) (A) (A)
                 (A) (A) (A) (A) (A) (A) (A) (A) (A) (A) (A) (A)
                 (A) (A) (A) (A) (A) (A) (A) (A) (A) (A) (A) (A)
                 (A) (A) (A) (A) (A) (A) (A) (A) (A) (A) (A) (A)
                 (A) (A) (A) (A) (A) (A) (A) (A) (A) (A) (A) (A)
                 (A) (A) (A) (A) (A) (A) (A) (A) (A) (A) (A) (A)
                 (A) (A) (A) (A) (A) (A) (A) (A) (A) (A) (A) (A)
                 (A) (A) (A) (A) (A) (A) (A) (A) (A) (A) (A) (A)
                 (A) (A) (A) (A) (A) (A) (A) (A) (A) (A) (A) (A)
                 (A) (A) (A) (A) (A) (A) (A) (A) (A) (A) (A) (A)
                 (A) (A) (A) (A) (A) (A) (A) (A) (A) (A) (A) (A)
                 (A) (A) (A) (A) (A) (A) (A) (A) (A) (A) (A) (A)
                 (A) (A) (A) (A) (A) (A) (A) (A) (A) (A) (A) (A)
                 (A) (A) (A) (A) (A) (A) (A) (A) (A) (A) (A) (A)
                 (A) (A) (A) (A) (A) (A) (A) (A) (A) (A) (A) (A)
                 (A) (A) (A) (A) (A) (A) (A) (A) (A) (A) (A) (A)
                 (A) (A) (A) (A) (A) (A) (A) (A) (A) (A) (A) (A)
                 (A) (A) (A) (A) (A) (A) (A) (A) (A) (A) (A) (A)
                 (A) (A) (A) (A) (A) (A) (A) (A) (A) (A) (A) (A)
                 (A) (A) (A) (A) (A) (A) (A) (A) (A) (A) (A) (A)
                 (A) (A) (A) (A) (A) (A) (A) (A) (A) (A) (A) (A)
                 (A) (A) (A) (A) (A) (A) (A) (A) (A) (A) (A) (A)
                 (A) (A) (A) (A) (A) (A) (A) (A) (A) (A) (A) (A)
                 (A) (A) (A) (A) (A) (A) (A) (A) (A) (A) (A) (A)
                 (A) (A) (A) (A) (A) (A) (A) (A) (A) (A) (A) (A)
                 (A) (A) (A) (A) (A) (A) (A) (A) (A) (A) (A) (A)
                 (A) (A) (A) (A) (A) (A) (A) (A) (A) (A) (A) (A)
                 (A) (A) (A) (A) (A) (A) (A) (A) (A) (A) (A) (A)
                 (A) (A) (A) (A) (A) (A) (A) (A) (A) (A) (A) (A)
                 (A) (A) (A) (A) (A) (A) (A) (A) (A) (A) (A) (A)
                 (A) (A) (A) (A) (A) (A) (A) (A) (A) (A) (A) (A)
                 (A) (A) (A) (A) (A) (A) (A) (A) (A) (A) (A) (A)
                 (A) (A) (A) (A) (A) (A) (A) (A) (A) (A) (A) (A)
                 (A) (A) (A) (A) (A) (A) (A) (A) (A) (A) (A) (A)
                 (A) (A) (A) (A) (A) (A) (A) (A) (A) (A) (A) (A)
                 (A) (A) (A) (A) (A) (A) (A) (A) (A) (A) (A) (A)
                 (A) (A) (A) (A) (A) (A) (A) (A) (A) (A) (A) (A)
                 (A) (A) (A) (A) (A) (A) (A) (A) (A) (A) (A) (A)
                 (A) (A) (A) (A) (A) (A) (A) (A) (A) (A) (A) (A)
                 (A) (A) (A) (A) (A)
 The electronic state is 1-A.
 Alpha  occ. eigenvalues -- -482.84926-101.57178 -62.50220 -56.32254 -56.31868
 Alpha  occ. eigenvalues --  -56.31854 -19.17764 -19.14146 -19.10900 -14.37885
 Alpha  occ. eigenvalues --  -10.30391 -10.26678 -10.25788 -10.25663 -10.25350
 Alpha  occ. eigenvalues --  -10.25305 -10.23367 -10.21534 -10.21499 -10.21455
 Alpha  occ. eigenvalues --  -10.21303 -10.19591 -10.19491 -10.19302 -10.18714
 Alpha  occ. eigenvalues --  -10.18481 -10.18455 -10.18390 -10.18095 -10.18085
 Alpha  occ. eigenvalues --  -10.18036 -10.18024 -10.17947  -9.48615  -8.71203
 Alpha  occ. eigenvalues --   -7.25087  -7.24077  -7.24072  -6.54350  -6.53052
 Alpha  occ. eigenvalues --   -6.53020  -2.65446  -2.65073  -2.65050  -2.64019
 Alpha  occ. eigenvalues --   -2.64018  -1.13565  -1.06296  -1.04569  -1.00070
[...]
   581. RY*(   5) C  27                  0.00037     0.83809   
   582. RY*(   6) C  27                  0.00034     0.90372   
   583. RY*(   7) C  27                  0.00011     3.01819   
   584. RY*(   8) C  27                  0.00007     2.94883   
   585. RY*(   9) C  27                  0.00004     2.73129   
   586. RY*(  10) C  27                  0.00001     1.16098   
   587. RY*(  11) C  27                  0.00000     2.98586   
   588. RY*(  12) C  27                  0.00001     1.96289   
   589. RY*(  13) C  27                  0.00000     1.57312   
   590. RY*(  14) C  27                  0.00000     0.37696   
   591. RY*(  15) C  27                  0.00000     2.58006   
   592. RY*(  16) C  27                  0.00000     1.62658   
   593. RY*(  17) C  27                  0.00000    20.17604   
   594. RY*(   1) C  28                  0.00589     1.07024   
   595. RY*(   2) C  28                  0.00213     1.29851   
   596. RY*(   3) C  28                  0.00081     0.49450   
   597. RY*(   4) C  28                  0.00061     1.64381   
   598. RY*(   5) C  28                  0.00044     0.98700   
   599. RY*(   6) C  28                  0.00017     1.49783   
   600. RY*(   7) C  28                  0.00011     3.22319   
   601. RY*(   8) C  28                  0.00005     2.91464   
   602. RY*(   9) C  28                  0.00005     1.34708   
   603. RY*(  10) C  28                  0.00001     1.35187   
   604. RY*(  11) C  28                  0.00000     0.85395   
   605. RY*(  12) C  28                  0.00001     2.62586   
   606. RY*(  13) C  28                  0.00001     2.10560   
   607. RY*(  14) C  28                  0.00001     0.47239   
   608. RY*(  15) C  28                  0.00001     1.85472   
   609. RY*(  16) C  28                  0.00000     2.62742   
   610. RY*(  17) C  28                  0.00000    21.09069   
   611. RY*(   1) C  29                  0.00546     1.32469   
   612. RY*(   2) C  29                  0.00198     1.09767   
   613. RY*(   3) C  29                  0.00083     0.72453   
   614. RY*(   4) C  29                  0.00079     0.82126   
   615. RY*(   5) C  29                  0.00062     1.59170   
   616. RY*(   6) C  29                  0.00026     1.59813   
   617. RY*(   7) C  29                  0.00016     2.48483   
   618. RY*(   8) C  29                  0.00009     3.23642   
   619. RY*(   9) C  29                  0.00007     1.38409   
   620. RY*(  10) C  29                  0.00006     2.05600   
   621. RY*(  11) C  29                  0.00003     2.37779   
   622. RY*(  12) C  29                  0.00000    20.46229   
   623. RY*(  13) C  29                  0.00000     2.72137   
   624. RY*(  14) C  29                  0.00001     1.81090   
   625. RY*(  15) C  29                  0.00001     1.77695   
   626. RY*(  16) C  29                  0.00001     2.48986   
   627. RY*(  17) C  29                  0.00001     2.14845   
   628. RY*(   1) H  30                  0.00132     0.86254   
   629. RY*(   2) H  30                  0.00026     1.72548   
   630. RY*(   3) H  30                  0.00019     2.05882   
   631. RY*(   4) H  30                  0.00013     1.62602   
   632. RY*(   5) H  30                  0.00011     2.36017   
   633. RY*(   6) H  30                  0.00010     1.19739   
   634. RY*(   1) H  31                  0.00231     0.55929   
   635. RY*(   2) H  31                  0.00028     1.81890   
   636. RY*(   3) H  31                  0.00023     1.83763   
   637. RY*(   4) H  31                  0.00017     1.40929   
   638. RY*(   5) H  31                  0.00012     2.05888   
   639. RY*(   6) H  31                  0.00009     2.23977   
   640. RY*(   1) H  32                  0.00131     0.51412   
   641. RY*(   2) H  32                  0.00033     1.86149   
   642. RY*(   3) H  32                  0.00024     1.90351   
   643. RY*(   4) H  32                  0.00011     1.73509   
   644. RY*(   5) H  32                  0.00006     0.81123   
   645. RY*(   6) H  32                  0.00004     2.57302   
   646. RY*(   1) H  33                  0.00083     0.86247   
   647. RY*(   2) H  33                  0.00022     1.74730   
   648. RY*(   3) H  33                  0.00018     1.97018   
   649. RY*(   4) H  33                  0.00011     1.85077   
   650. RY*(   5) H  33                  0.00006     0.49844   
   651. RY*(   6) H  33                  0.00004     2.34438   
   652. RY*(   1) H  34                  0.00077     0.79806   
   653. RY*(   2) H  34                  0.00023     2.20525   
   654. RY*(   3) H  34                  0.00018     1.57456   
   655. RY*(   4) H  34                  0.00015     1.78899   
   656. RY*(   5) H  34                  0.00007     0.41106   
   657. RY*(   6) H  34                  0.00003     2.44681   
   658. RY*(   1) H  35                  0.00075     0.77036   
   659. RY*(   2) H  35                  0.00022     2.09437   
   660. RY*(   3) H  35                  0.00019     1.61294   
   661. RY*(   4) H  35                  0.00017     1.73885   
   662. RY*(   5) H  35                  0.00008     0.69235   
   663. RY*(   6) H  35                  0.00004     2.36384   
   664. RY*(   1) H  36                  0.00161     0.74048   
   665. RY*(   2) H  36                  0.00067     1.72819   
   666. RY*(   3) H  36                  0.00042     1.75465   
   667. RY*(   4) H  36                  0.00020     2.29767   
   668. RY*(   5) H  36                  0.00014     1.51722   
   669. RY*(   6) H  36                  0.00005     2.51371   
   670. RY*(   1) H  37                  0.00177     1.72396   
   671. RY*(   2) H  37                  0.00127     1.80254   
   672. RY*(   3) H  37                  0.00070     1.60338   
   673. RY*(   4) H  37                  0.00030     1.29754   
   674. RY*(   5) H  37                  0.00015     0.48572   
   675. RY*(   6) H  37                  0.00001     2.49091   
   676. RY*(   1) H  38                  0.00083     1.07182   
   677. RY*(   2) H  38                  0.00022     1.89735   
   678. RY*(   3) H  38                  0.00019     1.63123   
   679. RY*(   4) H  38                  0.00013     2.02529   
   680. RY*(   5) H  38                  0.00004     2.44643   
   681. RY*(   1) H  39                  0.00148     0.46664   
   682. RY*(   2) H  39                  0.00030     2.38056   
   683. RY*(   3) H  39                  0.00018     1.66260   
   684. RY*(   4) H  39                  0.00013     1.82782   
   685. RY*(   5) H  39                  0.00008     0.70906   
   686. RY*(   6) H  39                  0.00004     2.37270   
   687. RY*(   1) H  40                  0.00146     0.46778   
   688. RY*(   2) H  40                  0.00034     2.37141   
   689. RY*(   3) H  40                  0.00018     1.63294   
   690. RY*(   4) H  40                  0.00014     1.82827   
   691. RY*(   5) H  40                  0.00007     0.67446   
   692. RY*(   6) H  40                  0.00004     2.48788   
   693. RY*(   1) H  41                  0.00108     1.29906   
   694. RY*(   2) H  41                  0.00026     1.72908   
   695. RY*(   3) H  41                  0.00016     1.71192   
   696. RY*(   4) H  41                  0.00014     1.61476   
   697. RY*(   5) H  41                  0.00008     1.31363   
   698. RY*(   6) H  41                  0.00004     1.87945   
   699. RY*(   1) H  42                  0.00136     0.46515   
   700. RY*(   2) H  42                  0.00031     2.40947   
   701. RY*(   3) H  42                  0.00019     1.63101   
   702. RY*(   4) H  42                  0.00013     1.99372   
   703. RY*(   5) H  42                  0.00005     0.56923   
   704. RY*(   6) H  42                  0.00004     2.33665   
   705. RY*(   1) H  43                  0.00083     0.65365   
   706. RY*(   2) H  43                  0.00020     2.21685   
   707. RY*(   3) H  43                  0.00019     1.71112   
   708. RY*(   4) H  43                  0.00011     1.96830   
   709. RY*(   5) H  43                  0.00004     2.45878   
   710. RY*(   6) H  43                  0.00001     0.21488   
   711. RY*(   1) H  44                  0.00076     0.67763   
   712. RY*(   2) H  44                  0.00020     1.59166   
   713. RY*(   3) H  44                  0.00019     2.34855   
   714. RY*(   4) H  44                  0.00011     1.96960   
   715. RY*(   5) H  44                  0.00003     2.46817   
   716. RY*(   6) H  44                  0.00001     0.16795   
   717. RY*(   1) H  45                  0.00083     0.65591   
   718. RY*(   2) H  45                  0.00020     2.33413   
   719. RY*(   3) H  45                  0.00019     1.59425   
   720. RY*(   4) H  45                  0.00011     1.97838   
   721. RY*(   5) H  45                  0.00004     2.47147   
   722. RY*(   6) H  45                  0.00001     0.21172   
   723. RY*(   1) H  46                  0.00136     0.44645   
   724. RY*(   2) H  46                  0.00031     2.45959   
   725. RY*(   3) H  46                  0.00019     0.20119   
   726. RY*(   4) H  46                  0.00013     0.44779   
   727. RY*(   5) H  46                  0.00004     0.28528   
   728. RY*(   6) H  46                  0.00004     1.27958   
   729. BD*(   1) C   1 - C   2          0.02604     0.52824   
   730. BD*(   1) C   1 - C   6          0.01591     0.54513   
   731. BD*(   2) C   1 - C   6          0.33079    -0.00518  734(v),739(v),122(g),209(g)
   732. BD*(   1) C   1 - H  32          0.01289     0.40748   
   733. BD*(   1) C   2 - C   3          0.02343     0.52701   
   734. BD*(   2) C   2 - C   3          0.39519    -0.01021  739(v),731(v),156(g),747(r)
                                                    745(v),140(g),122(v)
   735. BD*(   1) C   2 - N   7          0.02913     0.37868   
   736. BD*(   1) C   3 - C   4          0.01549     0.54712   
   737. BD*(   1) C   3 - H  33          0.01228     0.40458   
   738. BD*(   1) C   4 - C   5          0.02616     0.53838   
   739. BD*(   2) C   4 - C   5          0.39211    -0.01363  734(v),731(v),173(g),190(g)
                                                    207(v),413(v),791(r)
   740. BD*(   1) C   4 - H  34          0.01356     0.41192   
   741. BD*(   1) C   5 - C   6          0.02597     0.54026   
   742. BD*(   1) C   5 -Br  18          0.03388     0.07096   
   743. BD*(   1) C   6 - H  35          0.01366     0.41127   
   744. BD*(   1) N   7 - C   8          0.02727     0.44589   
   745. BD*(   1) N   7 - H  36          0.02208     0.35698   
   746. BD*(   1) C   8 - C   9          0.02681     0.58563   
   747. BD*(   2) C   8 - C   9          0.29925    -0.00545  756(v),258(g),752(v),753(v)
                                                    734(r),242(g),324(v)
   748. BD*(   1) C   8 - C  10          0.03626     0.35325   
   749. BD*(   1) C   9 - C  11          0.08027     0.43064   
   750. BD*(   1) C   9 -Cl  13          0.02803     0.14191   
   751. BD*(   1) C  10 - O  12          0.02839     0.24199   
   752. BD*(   1) C  10 - C  15          0.05358     0.31695   
   753. BD*(   1) C  10 - H  30          0.02715     0.37099   
   754. BD*(   1) C  11 - O  12          0.12178     0.30431  751(g),748(v),752(v),291(g)
                                                    750(v),746(v),299(g),317(g)
                                                    301(g)
   755. BD*(   1) C  11 - O  14          0.01279     0.63058   
   756. BD*(   2) C  11 - O  14          0.28347     0.00770  747(v),292(g),346(g),359(g)
   757. BD*(   1) C  15 - C  16          0.03625     0.39304   
   758. BD*(   1) C  15 - O  17          0.03135     0.26862   
   759. BD*(   1) C  15 - H  31          0.02371     0.37229   
   760. BD*(   1) C  16 - C  19          0.02267     0.56532   
   761. BD*(   2) C  16 - C  19          0.35991     0.02322  772(v),767(v),758(v),445(g)
                                                    752(v),513(v),380(g)
   762. BD*(   1) C  16 - C  23          0.02635     0.54826   
   763. BD*(   1) O  17 - H  37          0.00930     0.41775   
   764. BD*(   1) C  19 - C  20          0.01406     0.57306   
   765. BD*(   1) C  19 - H  38          0.01448     0.42527   
   766. BD*(   1) C  20 - C  21          0.02441     0.55900   
   767. BD*(   2) C  20 - C  21          0.35339     0.02654  772(v),761(v),776(v),462(g)
                                                    775(v),496(v),791(r)
   768. BD*(   1) C  20 - H  39          0.01393     0.43364   
   769. BD*(   1) C  21 - C  22          0.02451     0.55755   
   770. BD*(   1) C  21 - C  24          0.03159     0.45180   
   771. BD*(   1) C  22 - C  23          0.01506     0.56570   
   772. BD*(   2) C  22 - C  23          0.30879     0.02403  761(v),767(v),496(g),513(g)
                                                    497(g)
   773. BD*(   1) C  22 - H  40          0.01398     0.43663   
   774. BD*(   1) C  23 - H  41          0.01497     0.44883   
   775. BD*(   1) C  24 - C  25          0.02500     0.55199   
   776. BD*(   2) C  24 - C  25          0.36213     0.02910  781(v),767(v),545(g),786(v)
                                                    766(v)
   777. BD*(   1) C  24 - C  29          0.02504     0.55281   
   778. BD*(   1) C  25 - C  26          0.01513     0.57670   
   779. BD*(   1) C  25 - H  42          0.01401     0.44506   
   780. BD*(   1) C  26 - C  27          0.01633     0.57555   
   781. BD*(   2) C  26 - C  27          0.33488     0.02887  776(v),579(g),562(g),786(v)
                                                    791(r),590(g),789(r),788(r)
                                                    790(r)
   782. BD*(   1) C  26 - H  43          0.01356     0.43937   
   783. BD*(   1) C  27 - C  28          0.01632     0.57315   
   784. BD*(   1) C  27 - H  44          0.01362     0.44180   
   785. BD*(   1) C  28 - C  29          0.01512     0.58622   
   786. BD*(   2) C  28 - C  29          0.32326     2.72774  623(g),787(g),626(g),618(g)
                                                    788(g),669(r),617(g),728(v)
                                                    724(v),667(r),668(r),657(r)
                                                    625(g),601(g),627(g),535(v)
                                                    550(r),611(g),621(g),624(g)
                                                    620(g),670(r),585(v),568(r)
                                                    661(r),721(v),665(r),600(g)
                                                    619(g),645(r),536(v),554(r)
                                                    666(r),556(r),612(g),537(v)
                                                    791(r),635(r),652(r),557(r)
                                                    720(v),630(r),726(v),491(r)
                                                    790(r),606(g),485(r),560(r)
                                                    527(v),594(g),789(r),504(r)
                                                    500(r),478(r),466(r),569(r)
                                                    609(g),534(v),488(r),506(r)
                                                    595(g),639(r),525(r),648(r)
                                                    646(r),484(r),471(r),591(v)
                                                    499(r),152(r),508(r),501(r)
                                                    477(r),779(r),584(v),599(g)
                                                    647(r),605(g),492(r),518(r)
                                                    660(r),642(r),727(v),781(v)
                                                    603(g),542(v),483(r),704(r)
                                                    549(r),495(r),597(g),555(r)
                                                    596(g),567(r),540(v),714(r)
                                                    776(v),387(r),503(r),713(r)
                                                    615(g),219(r),517(r),502(r)
                                                    490(r),614(g)
   787. BD*(   1) C  28 - H  45          0.01355     2.94481   
   788. BD*(   1) C  29 - H  46          0.01402     3.20670   
       -------------------------------
              Total Lewis  232.61026  ( 97.7354%)
        Valence non-Lewis    4.95431  (  2.0816%)
        Rydberg non-Lewis    0.43543  (  0.1830%)
       -------------------------------
            Total unit  1  238.00000  (100.0000%)
           Charge unit  1    0.00000
 Leave Link  607 at Fri Jul 05 20:59:57 2019, MaxMem=   209715200 cpu:        35.0
 (Enter C:\G09W\l9999.exe)
 1|1|UNPC-CCSC-01038015|FOpt|RB3LYP|6-311++G(d,p)|C23H17Br1Cl1N1O3|PERF
 IL|05-Jul-2019|0||#p opt b3lyp/6-311++g(d,p) pop=nbo geom=connectivity
 ||9m.log||0,1|C,2.5165485888,0.9621423572,-0.9895388765|C,3.1587544238
 ,0.3888316429,0.11249474|C,3.6760660184,1.2228239644,1.1106597824|C,3.
 5457172971,2.6041212649,1.0175543552|C,2.8761930785,3.1568136867,-0.07
 11610032|C,2.3605336953,2.3431810295,-1.0748001493|N,3.3456188176,-1.0
 078929594,0.2293913954|C,2.4946914263,-2.0120756011,-0.1140058725|C,2.
 8006874605,-3.3254832908,-0.2080790581|C,1.0006103139,-1.8703862631,-0
 .3328411228|C,1.6091951327,-4.1103979465,-0.5045213088|O,0.5562447773,
 -3.2084353078,-0.6091472758|Cl,4.3616251309,-4.0284308697,0.0254468663
 |O,1.452181206,-5.2877348534,-0.6554134725|C,0.2446903583,-1.307759016
 1,0.9018366498|C,-1.2053459449,-0.957040769,0.6124032284|O,0.399470209
 2,-2.179022845,2.01548164|Br,2.6735240909,5.0560727772,-0.1944696718|C
 ,-1.6783194706,0.3155181838,0.9455593123|C,-3.0070989207,0.6681119088,
 0.7313899712|C,-3.9146240349,-0.2453880234,0.1787204059|C,-3.436783435
 8,-1.5220540309,-0.1517890471|C,-2.107430969,-1.8740141279,0.057387027
 |C,-5.3345746169,0.1248547991,-0.0489977895|C,-6.0393834048,0.88889085
 71,0.8929938859|C,-7.3713037107,1.2345534815,0.6807649941|C,-8.0270298
 845,0.824244344,-0.4788416911|C,-7.3391776767,0.0647483155,-1.42388487
 87|C,-6.0075786721,-0.2816524286,-1.2107767617|H,0.7629781576,-1.26089
 02408,-1.2066475485|H,0.7566366228,-0.3887049939,1.1934414339|H,2.1629
 603631,0.3400282261,-1.801548136|H,4.1715888477,0.7868800874,1.9710386
 538|H,3.9490359223,3.2409031015,1.7941616829|H,1.8613599633,2.77881889
 81,-1.9305584176|H,4.2436223463,-1.3119601559,0.5825621046|H,-0.123029
 1099,-2.9744814544,1.8578596731|H,-0.9986079368,1.0444006758,1.3752707
 632|H,-3.3379506538,1.670559969,0.9778812326|H,-4.1192032247,-2.258141
 3048,-0.5611668055|H,-1.7742283086,-2.8676146155,-0.216648023|H,-5.547
 713055,1.1923937188,1.8103497676|H,-7.9003167821,1.8170611773,1.426870
 2986|H,-9.0641385919,1.0931009506,-0.6440742284|H,-7.8376497411,-0.252
 8121275,-2.3330069526|H,-5.4766971029,-0.8538221917,-1.963269773||Vers
 ion=IA32W-G09RevD.01|State=1-A|HF=-4201.7891006|RMSD=7.670e-009|RMSF=8
 .622e-006|Dipole=0.0249299,2.0235956,0.0598667|Quadrupole=19.0804835,-
 24.1851795,5.1046959,4.1119358,5.3317989,0.8123841|PG=C01 [X(C23H17Br1
 Cl1N1O3)]||@


 AS FAR AS THE LAWS OF MATHEMATICS REFER TO REALITY,
 THEY ARE NOT CERTAIN; AND AS FAR AS THEY ARE CERTAIN,
 THEY DO NOT REFER TO REALITY.

                                         -- ALBERT EINSTEIN
 Job cpu time:       0 days 11 hours 32 minutes 13.0 seconds.
 File lengths (MBytes):  RWF=    367 Int=      0 D2E=      0 Chk=     41 Scr=      1
 Normal termination of Gaussian 09 at Fri Jul 05 20:59:58 2019.
