 Entering Link 1 = C:\G09W\l1.exe PID=     53052.
  
 Copyright (c) 1988,1990,1992,1993,1995,1998,2003,2009,2013,
            Gaussian, Inc.  All Rights Reserved.
  
 This is part of the Gaussian(R) 09 program.  It is based on
 the Gaussian(R) 03 system (copyright 2003, Gaussian, Inc.),
 the Gaussian(R) 98 system (copyright 1998, Gaussian, Inc.),
 the Gaussian(R) 94 system (copyright 1995, Gaussian, Inc.),
 the Gaussian 92(TM) system (copyright 1992, Gaussian, Inc.),
 the Gaussian 90(TM) system (copyright 1990, Gaussian, Inc.),
 the Gaussian 88(TM) system (copyright 1988, Gaussian, Inc.),
 the Gaussian 86(TM) system (copyright 1986, Carnegie Mellon
 University), and the Gaussian 82(TM) system (copyright 1983,
 Carnegie Mellon University). Gaussian is a federally registered
 trademark of Gaussian, Inc.
  
 This software contains proprietary and confidential information,
 including trade secrets, belonging to Gaussian, Inc.
  
 This software is provided under written license and may be
 used, copied, transmitted, or stored only in accord with that
 written license.
  
 The following legend is applicable only to US Government
 contracts under FAR:
  
                    RESTRICTED RIGHTS LEGEND
  
 Use, reproduction and disclosure by the US Government is
 subject to restrictions as set forth in subparagraphs (a)
 and (c) of the Commercial Computer Software - Restricted
 Rights clause in FAR 52.227-19.
  
 Gaussian, Inc.
 340 Quinnipiac St., Bldg. 40, Wallingford CT 06492
  
  
 ---------------------------------------------------------------
 Warning -- This program may not be used in any manner that
 competes with the business of Gaussian, Inc. or will provide
 assistance to any competitor of Gaussian, Inc.  The licensee
 of this program is prohibited from giving any competitor of
 Gaussian, Inc. access to this program.  By using this program,
 the user acknowledges that Gaussian, Inc. is engaged in the
 business of creating and licensing software in the field of
 computational chemistry and represents and warrants to the
 licensee that it is not a competitor of Gaussian, Inc. and that
 it will not use this program in any manner prohibited above.
 ---------------------------------------------------------------
  

 Cite this work as:
 Gaussian 09, Revision D.01,
 M. J. Frisch, G. W. Trucks, H. B. Schlegel, G. E. Scuseria, 
 M. A. Robb, J. R. Cheeseman, G. Scalmani, V. Barone, B. Mennucci, 
 G. A. Petersson, H. Nakatsuji, M. Caricato, X. Li, H. P. Hratchian, 
 A. F. Izmaylov, J. Bloino, G. Zheng, J. L. Sonnenberg, M. Hada, 
 M. Ehara, K. Toyota, R. Fukuda, J. Hasegawa, M. Ishida, T. Nakajima, 
 Y. Honda, O. Kitao, H. Nakai, T. Vreven, J. A. Montgomery, Jr., 
 J. E. Peralta, F. Ogliaro, M. Bearpark, J. J. Heyd, E. Brothers, 
 K. N. Kudin, V. N. Staroverov, T. Keith, R. Kobayashi, J. Normand, 
 K. Raghavachari, A. Rendell, J. C. Burant, S. S. Iyengar, J. Tomasi, 
 M. Cossi, N. Rega, J. M. Millam, M. Klene, J. E. Knox, J. B. Cross, 
 V. Bakken, C. Adamo, J. Jaramillo, R. Gomperts, R. E. Stratmann, 
 O. Yazyev, A. J. Austin, R. Cammi, C. Pomelli, J. W. Ochterski, 
 R. L. Martin, K. Morokuma, V. G. Zakrzewski, G. A. Voth, 
 P. Salvador, J. J. Dannenberg, S. Dapprich, A. D. Daniels, 
 O. Farkas, J. B. Foresman, J. V. Ortiz, J. Cioslowski, 
 and D. J. Fox, Gaussian, Inc., Wallingford CT, 2013.
 
 ******************************************
 Gaussian 09:  IA32W-G09RevD.01 24-Apr-2013
                05-Jul-2019 
 ******************************************
 %nprocshared=4
 Will use up to    4 processors via shared memory.
 %mem=1600MB
 ----------------------------------------------------
 #p opt b3lyp/6-311++g(d,p) pop=nbo geom=connectivity
 ----------------------------------------------------
 1/14=-1,18=20,19=15,26=3,38=1,57=2/1,3;
 2/9=110,12=2,17=6,18=5,40=1/2;
 3/5=4,6=6,7=1111,11=2,16=1,25=1,30=1,71=1,74=-5/1,2,3;
 4//1;
 5/5=2,38=5/2;
 6/7=2,8=2,9=2,10=2,28=1,40=1/1,7;
 7//1,2,3,16;
 1/14=-1,18=20,19=15,26=3/3(2);
 2/9=110/2;
 99//99;
 2/9=110/2;
 3/5=4,6=6,7=1111,11=2,16=1,25=1,30=1,71=1,74=-5/1,2,3;
 4/5=5,16=3,69=1/1;
 5/5=2,38=5/2;
 7//1,2,3,16;
 1/14=-1,18=20,19=15,26=3/3(-5);
 2/9=110/2;
 6/7=2,8=2,9=2,10=2,19=2,28=1,40=1/1,7;
 99/9=1/99;
 Leave Link    1 at Fri Jul 05 20:59:58 2019, MaxMem=   209715200 cpu:         0.0
 (Enter C:\G09W\l101.exe)
 ------
 9n.log
 ------
 Symbolic Z-matrix:
 Charge =  0 Multiplicity = 1
 C                     2.65485   2.32662  -1.40368 
 C                     3.13521   1.98868  -0.14664 
 C                     3.11117   2.92626   0.87695 
 C                     2.60259   4.19223   0.64341 
 C                     2.10032   4.52343  -0.60544 
 C                     2.12528   3.58781  -1.62562 
 N                     3.69141   0.7051    0.10722 
 C                     3.10432  -0.48509  -0.13809 
 C                     3.68189  -1.68512  -0.21418 
 C                     1.6106   -0.6825   -0.30549 
 C                     2.66899  -2.71031  -0.43367 
 O                     1.47883  -2.07103  -0.52346 
 Cl                    5.35609  -2.03879  -0.05787 
 O                     2.76801  -3.8815   -0.53398 
 C                     0.79358  -0.28059   0.93709 
 C                    -0.70337  -0.27364   0.67064 
 O                     1.16272  -1.07307   2.02516 
 C                    -1.40747   0.91833   0.75639 
 C                    -2.77318   0.96109   0.53036 
 C                    -3.48001  -0.19359   0.21659 
 C                    -2.77114  -1.39022   0.13237 
 C                    -1.40736  -1.43149   0.35193 
 C                    -4.95048  -0.15386  -0.02379 
 C                    -5.79258   0.55938   0.82548 
 C                    -7.15824   0.5972    0.60182 
 C                    -7.7075   -0.078    -0.47549 
 C                    -6.88038  -0.79143  -1.32705 
 C                    -5.51478  -0.82894  -1.10316 
 H                     1.23524  -0.16219  -1.1762 
 H                     1.08328   0.72649   1.20088 
 H                     2.70997   1.61368  -2.2068 
 H                     3.48288   2.65462   1.84872 
 H                     2.58895   4.91475   1.43966 
 H                     1.69736   5.50436  -0.78248 
 H                     1.74866   3.84121  -2.60034 
 H                     4.66507   0.671     0.31401 
 H                     0.84752  -1.95509   1.90648 
 H                    -0.88785   1.82964   0.99849 
 H                    -3.28814   1.90353   0.58493 
 H                    -3.29415  -2.30236  -0.0926 
 H                    -0.89498  -2.37188   0.26245 
 H                    -5.37949   1.06967   1.67738 
 H                    -7.79302   1.14762   1.27379 
 H                    -8.76863  -0.04925  -0.64907 
 H                    -7.29636  -1.31434  -2.17021 
 H                    -4.88011  -1.37037  -1.78199 
 
 NAtoms=     46 NQM=       46 NQMF=       0 NMMI=      0 NMMIF=      0
                NMic=       0 NMicF=      0.
                    Isotopes and Nuclear Properties:
 (Nuclear quadrupole moments (NQMom) in fm**2, nuclear magnetic moments (NMagM)
  in nuclear magnetons)

  Atom         1           2           3           4           5           6           7           8           9          10
 IAtWgt=          12          12          12          12          12          12          14          12          12          12
 AtmWgt=  12.0000000  12.0000000  12.0000000  12.0000000  12.0000000  12.0000000  14.0030740  12.0000000  12.0000000  12.0000000
 NucSpn=           0           0           0           0           0           0           2           0           0           0
 AtZEff=   0.0000000   0.0000000   0.0000000   0.0000000   0.0000000   0.0000000   0.0000000   0.0000000   0.0000000   0.0000000
 NQMom=    0.0000000   0.0000000   0.0000000   0.0000000   0.0000000   0.0000000   2.0440000   0.0000000   0.0000000   0.0000000
 NMagM=    0.0000000   0.0000000   0.0000000   0.0000000   0.0000000   0.0000000   0.4037610   0.0000000   0.0000000   0.0000000
 AtZNuc=   6.0000000   6.0000000   6.0000000   6.0000000   6.0000000   6.0000000   7.0000000   6.0000000   6.0000000   6.0000000

  Atom        11          12          13          14          15          16          17          18          19          20
 IAtWgt=          12          16          35          16          12          12          16          12          12          12
 AtmWgt=  12.0000000  15.9949146  34.9688527  15.9949146  12.0000000  12.0000000  15.9949146  12.0000000  12.0000000  12.0000000
 NucSpn=           0           0           3           0           0           0           0           0           0           0
 AtZEff=   0.0000000   0.0000000   0.0000000   0.0000000   0.0000000   0.0000000   0.0000000   0.0000000   0.0000000   0.0000000
 NQMom=    0.0000000   0.0000000  -8.1650000   0.0000000   0.0000000   0.0000000   0.0000000   0.0000000   0.0000000   0.0000000
 NMagM=    0.0000000   0.0000000   0.8218740   0.0000000   0.0000000   0.0000000   0.0000000   0.0000000   0.0000000   0.0000000
 AtZNuc=   6.0000000   8.0000000  17.0000000   8.0000000   6.0000000   6.0000000   8.0000000   6.0000000   6.0000000   6.0000000

  Atom        21          22          23          24          25          26          27          28          29          30
 IAtWgt=          12          12          12          12          12          12          12          12           1           1
 AtmWgt=  12.0000000  12.0000000  12.0000000  12.0000000  12.0000000  12.0000000  12.0000000  12.0000000   1.0078250   1.0078250
 NucSpn=           0           0           0           0           0           0           0           0           1           1
 AtZEff=   0.0000000   0.0000000   0.0000000   0.0000000   0.0000000   0.0000000   0.0000000   0.0000000   0.0000000   0.0000000
 NQMom=    0.0000000   0.0000000   0.0000000   0.0000000   0.0000000   0.0000000   0.0000000   0.0000000   0.0000000   0.0000000
 NMagM=    0.0000000   0.0000000   0.0000000   0.0000000   0.0000000   0.0000000   0.0000000   0.0000000   2.7928460   2.7928460
 AtZNuc=   6.0000000   6.0000000   6.0000000   6.0000000   6.0000000   6.0000000   6.0000000   6.0000000   1.0000000   1.0000000

  Atom        31          32          33          34          35          36          37          38          39          40
 IAtWgt=           1           1           1           1           1           1           1           1           1           1
 AtmWgt=   1.0078250   1.0078250   1.0078250   1.0078250   1.0078250   1.0078250   1.0078250   1.0078250   1.0078250   1.0078250
 NucSpn=           1           1           1           1           1           1           1           1           1           1
 AtZEff=   0.0000000   0.0000000   0.0000000   0.0000000   0.0000000   0.0000000   0.0000000   0.0000000   0.0000000   0.0000000
 NQMom=    0.0000000   0.0000000   0.0000000   0.0000000   0.0000000   0.0000000   0.0000000   0.0000000   0.0000000   0.0000000
 NMagM=    2.7928460   2.7928460   2.7928460   2.7928460   2.7928460   2.7928460   2.7928460   2.7928460   2.7928460   2.7928460
 AtZNuc=   1.0000000   1.0000000   1.0000000   1.0000000   1.0000000   1.0000000   1.0000000   1.0000000   1.0000000   1.0000000

  Atom        41          42          43          44          45          46
 IAtWgt=           1           1           1           1           1           1
 AtmWgt=   1.0078250   1.0078250   1.0078250   1.0078250   1.0078250   1.0078250
 NucSpn=           1           1           1           1           1           1
 AtZEff=   0.0000000   0.0000000   0.0000000   0.0000000   0.0000000   0.0000000
 NQMom=    0.0000000   0.0000000   0.0000000   0.0000000   0.0000000   0.0000000
 NMagM=    2.7928460   2.7928460   2.7928460   2.7928460   2.7928460   2.7928460
 AtZNuc=   1.0000000   1.0000000   1.0000000   1.0000000   1.0000000   1.0000000
 Leave Link  101 at Fri Jul 05 20:59:58 2019, MaxMem=   209715200 cpu:         0.0
 (Enter C:\G09W\l103.exe)

 GradGradGradGradGradGradGradGradGradGradGradGradGradGradGradGradGradGrad
 Berny optimization.
 Initialization pass.
                           ----------------------------
                           !    Initial Parameters    !
                           ! (Angstroms and Degrees)  !
 --------------------------                            --------------------------
 ! Name  Definition              Value          Derivative Info.                !
 --------------------------------------------------------------------------------
 ! R1    R(1,2)                  1.3875         estimate D2E/DX2                !
 ! R2    R(1,6)                  1.3858         estimate D2E/DX2                !
 ! R3    R(1,31)                 1.0753         estimate D2E/DX2                !
 ! R4    R(2,3)                  1.3883         estimate D2E/DX2                !
 ! R5    R(2,7)                  1.4218         estimate D2E/DX2                !
 ! R6    R(3,4)                  1.3841         estimate D2E/DX2                !
 ! R7    R(3,32)                 1.0753         estimate D2E/DX2                !
 ! R8    R(4,5)                  1.3862         estimate D2E/DX2                !
 ! R9    R(4,33)                 1.0753         estimate D2E/DX2                !
 ! R10   R(5,6)                  1.3845         estimate D2E/DX2                !
 ! R11   R(5,34)                 1.0751         estimate D2E/DX2                !
 ! R12   R(6,35)                 1.0752         estimate D2E/DX2                !
 ! R13   R(7,8)                  1.3496         estimate D2E/DX2                !
 ! R14   R(7,36)                 0.996          estimate D2E/DX2                !
 ! R15   R(8,9)                  1.334          estimate D2E/DX2                !
 ! R16   R(8,10)                 1.516          estimate D2E/DX2                !
 ! R17   R(9,11)                 1.4578         estimate D2E/DX2                !
 ! R18   R(9,13)                 1.7183         estimate D2E/DX2                !
 ! R19   R(10,12)                1.4117         estimate D2E/DX2                !
 ! R20   R(10,15)                1.5405         estimate D2E/DX2                !
 ! R21   R(10,29)                1.0816         estimate D2E/DX2                !
 ! R22   R(11,12)                1.354          estimate D2E/DX2                !
 ! R23   R(11,14)                1.1796         estimate D2E/DX2                !
 ! R24   R(15,16)                1.5205         estimate D2E/DX2                !
 ! R25   R(15,17)                1.3958         estimate D2E/DX2                !
 ! R26   R(15,30)                1.0806         estimate D2E/DX2                !
 ! R27   R(16,18)                1.387          estimate D2E/DX2                !
 ! R28   R(16,22)                1.392          estimate D2E/DX2                !
 ! R29   R(17,37)                0.9441         estimate D2E/DX2                !
 ! R30   R(18,19)                1.3849         estimate D2E/DX2                !
 ! R31   R(18,38)                1.0766         estimate D2E/DX2                !
 ! R32   R(19,20)                1.3897         estimate D2E/DX2                !
 ! R33   R(19,39)                1.0753         estimate D2E/DX2                !
 ! R34   R(20,21)                1.3934         estimate D2E/DX2                !
 ! R35   R(20,23)                1.4905         estimate D2E/DX2                !
 ! R36   R(21,22)                1.382          estimate D2E/DX2                !
 ! R37   R(21,40)                1.0752         estimate D2E/DX2                !
 ! R38   R(22,41)                1.0746         estimate D2E/DX2                !
 ! R39   R(23,24)                1.3925         estimate D2E/DX2                !
 ! R40   R(23,28)                1.3926         estimate D2E/DX2                !
 ! R41   R(24,25)                1.3844         estimate D2E/DX2                !
 ! R42   R(24,42)                1.0755         estimate D2E/DX2                !
 ! R43   R(25,26)                1.385          estimate D2E/DX2                !
 ! R44   R(25,43)                1.0759         estimate D2E/DX2                !
 ! R45   R(26,27)                1.385          estimate D2E/DX2                !
 ! R46   R(26,44)                1.0756         estimate D2E/DX2                !
 ! R47   R(27,28)                1.3843         estimate D2E/DX2                !
 ! R48   R(27,45)                1.0758         estimate D2E/DX2                !
 ! R49   R(28,46)                1.0755         estimate D2E/DX2                !
 ! A1    A(2,1,6)              119.9389         estimate D2E/DX2                !
 ! A2    A(2,1,31)             119.8298         estimate D2E/DX2                !
 ! A3    A(6,1,31)             120.2235         estimate D2E/DX2                !
 ! A4    A(1,2,3)              119.8348         estimate D2E/DX2                !
 ! A5    A(1,2,7)              121.1376         estimate D2E/DX2                !
 ! A6    A(3,2,7)              119.0021         estimate D2E/DX2                !
 ! A7    A(2,3,4)              119.9767         estimate D2E/DX2                !
 ! A8    A(2,3,32)             119.3219         estimate D2E/DX2                !
 ! A9    A(4,3,32)             120.6994         estimate D2E/DX2                !
 ! A10   A(3,4,5)              120.2424         estimate D2E/DX2                !
 ! A11   A(3,4,33)             119.6229         estimate D2E/DX2                !
 ! A12   A(5,4,33)             120.1311         estimate D2E/DX2                !
 ! A13   A(4,5,6)              119.7262         estimate D2E/DX2                !
 ! A14   A(4,5,34)             120.1414         estimate D2E/DX2                !
 ! A15   A(6,5,34)             120.1318         estimate D2E/DX2                !
 ! A16   A(1,6,5)              120.2598         estimate D2E/DX2                !
 ! A17   A(1,6,35)             119.5724         estimate D2E/DX2                !
 ! A18   A(5,6,35)             120.1598         estimate D2E/DX2                !
 ! A19   A(2,7,8)              126.4091         estimate D2E/DX2                !
 ! A20   A(2,7,36)             116.7716         estimate D2E/DX2                !
 ! A21   A(8,7,36)             115.6464         estimate D2E/DX2                !
 ! A22   A(7,8,9)              127.9786         estimate D2E/DX2                !
 ! A23   A(7,8,10)             124.3008         estimate D2E/DX2                !
 ! A24   A(9,8,10)             107.6479         estimate D2E/DX2                !
 ! A25   A(8,9,11)             109.9012         estimate D2E/DX2                !
 ! A26   A(8,9,13)             127.0019         estimate D2E/DX2                !
 ! A27   A(11,9,13)            123.089          estimate D2E/DX2                !
 ! A28   A(8,10,12)            103.7155         estimate D2E/DX2                !
 ! A29   A(8,10,15)            113.5493         estimate D2E/DX2                !
 ! A30   A(8,10,29)            111.605          estimate D2E/DX2                !
 ! A31   A(12,10,15)           109.3696         estimate D2E/DX2                !
 ! A32   A(12,10,29)           108.4508         estimate D2E/DX2                !
 ! A33   A(15,10,29)           109.8644         estimate D2E/DX2                !
 ! A34   A(9,11,12)            106.7796         estimate D2E/DX2                !
 ! A35   A(9,11,14)            130.7448         estimate D2E/DX2                !
 ! A36   A(12,11,14)           122.4745         estimate D2E/DX2                !
 ! A37   A(10,12,11)           111.8469         estimate D2E/DX2                !
 ! A38   A(10,15,16)           112.4574         estimate D2E/DX2                !
 ! A39   A(10,15,17)           109.9014         estimate D2E/DX2                !
 ! A40   A(10,15,30)           107.3294         estimate D2E/DX2                !
 ! A41   A(16,15,17)           113.5519         estimate D2E/DX2                !
 ! A42   A(16,15,30)           107.6053         estimate D2E/DX2                !
 ! A43   A(17,15,30)           105.5414         estimate D2E/DX2                !
 ! A44   A(15,16,18)           119.5288         estimate D2E/DX2                !
 ! A45   A(15,16,22)           122.2904         estimate D2E/DX2                !
 ! A46   A(18,16,22)           118.1781         estimate D2E/DX2                !
 ! A47   A(15,17,37)           110.1282         estimate D2E/DX2                !
 ! A48   A(16,18,19)           121.1327         estimate D2E/DX2                !
 ! A49   A(16,18,38)           119.756          estimate D2E/DX2                !
 ! A50   A(19,18,38)           119.1108         estimate D2E/DX2                !
 ! A51   A(18,19,20)           120.8462         estimate D2E/DX2                !
 ! A52   A(18,19,39)           119.4068         estimate D2E/DX2                !
 ! A53   A(20,19,39)           119.7409         estimate D2E/DX2                !
 ! A54   A(19,20,21)           117.9332         estimate D2E/DX2                !
 ! A55   A(19,20,23)           121.0664         estimate D2E/DX2                !
 ! A56   A(21,20,23)           121.0004         estimate D2E/DX2                !
 ! A57   A(20,21,22)           121.2047         estimate D2E/DX2                !
 ! A58   A(20,21,40)           119.5851         estimate D2E/DX2                !
 ! A59   A(22,21,40)           119.2035         estimate D2E/DX2                !
 ! A60   A(16,22,21)           120.7039         estimate D2E/DX2                !
 ! A61   A(16,22,41)           120.3838         estimate D2E/DX2                !
 ! A62   A(21,22,41)           118.9091         estimate D2E/DX2                !
 ! A63   A(20,23,24)           120.79           estimate D2E/DX2                !
 ! A64   A(20,23,28)           120.7874         estimate D2E/DX2                !
 ! A65   A(24,23,28)           118.4226         estimate D2E/DX2                !
 ! A66   A(23,24,25)           120.7984         estimate D2E/DX2                !
 ! A67   A(23,24,42)           119.5922         estimate D2E/DX2                !
 ! A68   A(25,24,42)           119.5964         estimate D2E/DX2                !
 ! A69   A(24,25,26)           120.2368         estimate D2E/DX2                !
 ! A70   A(24,25,43)           119.678          estimate D2E/DX2                !
 ! A71   A(26,25,43)           120.0834         estimate D2E/DX2                !
 ! A72   A(25,26,27)           119.5074         estimate D2E/DX2                !
 ! A73   A(25,26,44)           120.2479         estimate D2E/DX2                !
 ! A74   A(27,26,44)           120.2446         estimate D2E/DX2                !
 ! A75   A(26,27,28)           120.2403         estimate D2E/DX2                !
 ! A76   A(26,27,45)           120.0877         estimate D2E/DX2                !
 ! A77   A(28,27,45)           119.6709         estimate D2E/DX2                !
 ! A78   A(23,28,27)           120.7946         estimate D2E/DX2                !
 ! A79   A(23,28,46)           119.6124         estimate D2E/DX2                !
 ! A80   A(27,28,46)           119.5824         estimate D2E/DX2                !
 ! D1    D(6,1,2,3)             -1.4549         estimate D2E/DX2                !
 ! D2    D(6,1,2,7)           -179.6022         estimate D2E/DX2                !
 ! D3    D(31,1,2,3)           177.5319         estimate D2E/DX2                !
 ! D4    D(31,1,2,7)            -0.6153         estimate D2E/DX2                !
 ! D5    D(2,1,6,5)              1.4355         estimate D2E/DX2                !
 ! D6    D(2,1,6,35)          -179.592          estimate D2E/DX2                !
 ! D7    D(31,1,6,5)          -177.5473         estimate D2E/DX2                !
 ! D8    D(31,1,6,35)            1.4252         estimate D2E/DX2                !
 ! D9    D(1,2,3,4)              0.3238         estimate D2E/DX2                !
 ! D10   D(1,2,3,32)           179.8221         estimate D2E/DX2                !
 ! D11   D(7,2,3,4)            178.5106         estimate D2E/DX2                !
 ! D12   D(7,2,3,32)            -1.9912         estimate D2E/DX2                !
 ! D13   D(1,2,7,8)            -53.7411         estimate D2E/DX2                !
 ! D14   D(1,2,7,36)           113.2776         estimate D2E/DX2                !
 ! D15   D(3,2,7,8)            128.0965         estimate D2E/DX2                !
 ! D16   D(3,2,7,36)           -64.8847         estimate D2E/DX2                !
 ! D17   D(2,3,4,5)              0.8358         estimate D2E/DX2                !
 ! D18   D(2,3,4,33)          -179.8501         estimate D2E/DX2                !
 ! D19   D(32,3,4,5)          -178.6554         estimate D2E/DX2                !
 ! D20   D(32,3,4,33)            0.6586         estimate D2E/DX2                !
 ! D21   D(3,4,5,6)             -0.8593         estimate D2E/DX2                !
 ! D22   D(3,4,5,34)           179.4351         estimate D2E/DX2                !
 ! D23   D(33,4,5,6)           179.8301         estimate D2E/DX2                !
 ! D24   D(33,4,5,34)            0.1245         estimate D2E/DX2                !
 ! D25   D(4,5,6,1)             -0.2782         estimate D2E/DX2                !
 ! D26   D(4,5,6,35)          -179.2447         estimate D2E/DX2                !
 ! D27   D(34,5,6,1)           179.4275         estimate D2E/DX2                !
 ! D28   D(34,5,6,35)            0.461          estimate D2E/DX2                !
 ! D29   D(2,7,8,9)            162.8359         estimate D2E/DX2                !
 ! D30   D(2,7,8,10)           -20.6558         estimate D2E/DX2                !
 ! D31   D(36,7,8,9)            -4.3099         estimate D2E/DX2                !
 ! D32   D(36,7,8,10)          172.1984         estimate D2E/DX2                !
 ! D33   D(7,8,9,11)           177.2898         estimate D2E/DX2                !
 ! D34   D(7,8,9,13)            -1.6998         estimate D2E/DX2                !
 ! D35   D(10,8,9,11)            0.3163         estimate D2E/DX2                !
 ! D36   D(10,8,9,13)         -178.6733         estimate D2E/DX2                !
 ! D37   D(7,8,10,12)         -179.2595         estimate D2E/DX2                !
 ! D38   D(7,8,10,15)          -60.6537         estimate D2E/DX2                !
 ! D39   D(7,8,10,29)           64.1858         estimate D2E/DX2                !
 ! D40   D(9,8,10,12)           -2.1472         estimate D2E/DX2                !
 ! D41   D(9,8,10,15)          116.4586         estimate D2E/DX2                !
 ! D42   D(9,8,10,29)         -118.7019         estimate D2E/DX2                !
 ! D43   D(8,9,11,12)            1.7398         estimate D2E/DX2                !
 ! D44   D(8,9,11,14)         -178.6308         estimate D2E/DX2                !
 ! D45   D(13,9,11,12)        -179.2234         estimate D2E/DX2                !
 ! D46   D(13,9,11,14)           0.4061         estimate D2E/DX2                !
 ! D47   D(8,10,12,11)           3.3462         estimate D2E/DX2                !
 ! D48   D(15,10,12,11)       -118.1029         estimate D2E/DX2                !
 ! D49   D(29,10,12,11)        122.0957         estimate D2E/DX2                !
 ! D50   D(8,10,15,16)         170.7554         estimate D2E/DX2                !
 ! D51   D(8,10,15,17)         -61.6935         estimate D2E/DX2                !
 ! D52   D(8,10,15,30)          52.6032         estimate D2E/DX2                !
 ! D53   D(12,10,15,16)        -73.9431         estimate D2E/DX2                !
 ! D54   D(12,10,15,17)         53.6079         estimate D2E/DX2                !
 ! D55   D(12,10,15,30)        167.9047         estimate D2E/DX2                !
 ! D56   D(29,10,15,16)         44.9854         estimate D2E/DX2                !
 ! D57   D(29,10,15,17)        172.5365         estimate D2E/DX2                !
 ! D58   D(29,10,15,30)        -73.1668         estimate D2E/DX2                !
 ! D59   D(9,11,12,10)          -3.2419         estimate D2E/DX2                !
 ! D60   D(14,11,12,10)        177.0908         estimate D2E/DX2                !
 ! D61   D(10,15,16,18)       -116.2005         estimate D2E/DX2                !
 ! D62   D(10,15,16,22)         64.4028         estimate D2E/DX2                !
 ! D63   D(17,15,16,18)        118.2097         estimate D2E/DX2                !
 ! D64   D(17,15,16,22)        -61.187          estimate D2E/DX2                !
 ! D65   D(30,15,16,18)          1.7889         estimate D2E/DX2                !
 ! D66   D(30,15,16,22)       -177.6078         estimate D2E/DX2                !
 ! D67   D(10,15,17,37)        -71.1526         estimate D2E/DX2                !
 ! D68   D(16,15,17,37)         55.7874         estimate D2E/DX2                !
 ! D69   D(30,15,17,37)        173.4126         estimate D2E/DX2                !
 ! D70   D(15,16,18,19)       -179.5036         estimate D2E/DX2                !
 ! D71   D(15,16,18,38)          0.7512         estimate D2E/DX2                !
 ! D72   D(22,16,18,19)         -0.0822         estimate D2E/DX2                !
 ! D73   D(22,16,18,38)       -179.8274         estimate D2E/DX2                !
 ! D74   D(15,16,22,21)        179.1868         estimate D2E/DX2                !
 ! D75   D(15,16,22,41)         -1.4677         estimate D2E/DX2                !
 ! D76   D(18,16,22,21)         -0.2176         estimate D2E/DX2                !
 ! D77   D(18,16,22,41)        179.1278         estimate D2E/DX2                !
 ! D78   D(16,18,19,20)          0.3123         estimate D2E/DX2                !
 ! D79   D(16,18,19,39)       -178.7898         estimate D2E/DX2                !
 ! D80   D(38,18,19,20)       -179.9409         estimate D2E/DX2                !
 ! D81   D(38,18,19,39)          0.9571         estimate D2E/DX2                !
 ! D82   D(18,19,20,21)         -0.234          estimate D2E/DX2                !
 ! D83   D(18,19,20,23)        179.8235         estimate D2E/DX2                !
 ! D84   D(39,19,20,21)        178.8651         estimate D2E/DX2                !
 ! D85   D(39,19,20,23)         -1.0774         estimate D2E/DX2                !
 ! D86   D(19,20,21,22)         -0.0661         estimate D2E/DX2                !
 ! D87   D(19,20,21,40)        178.9874         estimate D2E/DX2                !
 ! D88   D(23,20,21,22)        179.8764         estimate D2E/DX2                !
 ! D89   D(23,20,21,40)         -1.07           estimate D2E/DX2                !
 ! D90   D(19,20,23,24)        -45.0519         estimate D2E/DX2                !
 ! D91   D(19,20,23,28)        134.9365         estimate D2E/DX2                !
 ! D92   D(21,20,23,24)        135.0073         estimate D2E/DX2                !
 ! D93   D(21,20,23,28)        -45.0043         estimate D2E/DX2                !
 ! D94   D(20,21,22,16)          0.2952         estimate D2E/DX2                !
 ! D95   D(20,21,22,41)       -179.0598         estimate D2E/DX2                !
 ! D96   D(40,21,22,16)       -178.7619         estimate D2E/DX2                !
 ! D97   D(40,21,22,41)          1.8831         estimate D2E/DX2                !
 ! D98   D(20,23,24,25)        179.9525         estimate D2E/DX2                !
 ! D99   D(20,23,24,42)         -1.3622         estimate D2E/DX2                !
 ! D100  D(28,23,24,25)         -0.0362         estimate D2E/DX2                !
 ! D101  D(28,23,24,42)        178.6491         estimate D2E/DX2                !
 ! D102  D(20,23,28,27)       -179.9581         estimate D2E/DX2                !
 ! D103  D(20,23,28,46)         -1.1472         estimate D2E/DX2                !
 ! D104  D(24,23,28,27)          0.0306         estimate D2E/DX2                !
 ! D105  D(24,23,28,46)        178.8415         estimate D2E/DX2                !
 ! D106  D(23,24,25,26)          0.0145         estimate D2E/DX2                !
 ! D107  D(23,24,25,43)        179.5292         estimate D2E/DX2                !
 ! D108  D(42,24,25,26)       -178.6707         estimate D2E/DX2                !
 ! D109  D(42,24,25,43)          0.844          estimate D2E/DX2                !
 ! D110  D(24,25,26,27)          0.0135         estimate D2E/DX2                !
 ! D111  D(24,25,26,44)        179.9606         estimate D2E/DX2                !
 ! D112  D(43,25,26,27)       -179.4992         estimate D2E/DX2                !
 ! D113  D(43,25,26,44)          0.4479         estimate D2E/DX2                !
 ! D114  D(25,26,27,28)         -0.0191         estimate D2E/DX2                !
 ! D115  D(25,26,27,45)       -179.624          estimate D2E/DX2                !
 ! D116  D(44,26,27,28)       -179.9662         estimate D2E/DX2                !
 ! D117  D(44,26,27,45)          0.4289         estimate D2E/DX2                !
 ! D118  D(26,27,28,23)         -0.0033         estimate D2E/DX2                !
 ! D119  D(26,27,28,46)       -178.8145         estimate D2E/DX2                !
 ! D120  D(45,27,28,23)        179.6033         estimate D2E/DX2                !
 ! D121  D(45,27,28,46)          0.7921         estimate D2E/DX2                !
 --------------------------------------------------------------------------------
 Trust Radius=3.00D-01 FncErr=1.00D-07 GrdErr=1.00D-06
 Number of steps in this run=    260 maximum allowed number of steps=    276.
 GradGradGradGradGradGradGradGradGradGradGradGradGradGradGradGradGradGrad

 Leave Link  103 at Fri Jul 05 20:59:58 2019, MaxMem=   209715200 cpu:         0.0
 (Enter C:\G09W\l202.exe)
                          Input orientation:                          
 ---------------------------------------------------------------------
 Center     Atomic      Atomic             Coordinates (Angstroms)
 Number     Number       Type             X           Y           Z
 ---------------------------------------------------------------------
      1          6           0        2.654853    2.326617   -1.403677
      2          6           0        3.135210    1.988681   -0.146638
      3          6           0        3.111170    2.926260    0.876949
      4          6           0        2.602591    4.192228    0.643413
      5          6           0        2.100316    4.523429   -0.605439
      6          6           0        2.125278    3.587813   -1.625618
      7          7           0        3.691411    0.705101    0.107216
      8          6           0        3.104320   -0.485088   -0.138094
      9          6           0        3.681885   -1.685121   -0.214180
     10          6           0        1.610597   -0.682502   -0.305491
     11          6           0        2.668990   -2.710313   -0.433673
     12          8           0        1.478834   -2.071026   -0.523460
     13         17           0        5.356087   -2.038793   -0.057872
     14          8           0        2.768012   -3.881495   -0.533984
     15          6           0        0.793579   -0.280592    0.937088
     16          6           0       -0.703366   -0.273643    0.670639
     17          8           0        1.162723   -1.073068    2.025162
     18          6           0       -1.407470    0.918325    0.756388
     19          6           0       -2.773181    0.961090    0.530358
     20          6           0       -3.480011   -0.193594    0.216594
     21          6           0       -2.771143   -1.390215    0.132365
     22          6           0       -1.407356   -1.431494    0.351932
     23          6           0       -4.950480   -0.153861   -0.023786
     24          6           0       -5.792576    0.559376    0.825484
     25          6           0       -7.158237    0.597199    0.601824
     26          6           0       -7.707499   -0.077996   -0.475487
     27          6           0       -6.880376   -0.791428   -1.327050
     28          6           0       -5.514776   -0.828938   -1.103159
     29          1           0        1.235239   -0.162187   -1.176204
     30          1           0        1.083283    0.726493    1.200878
     31          1           0        2.709974    1.613679   -2.206801
     32          1           0        3.482883    2.654621    1.848720
     33          1           0        2.588946    4.914750    1.439660
     34          1           0        1.697358    5.504355   -0.782479
     35          1           0        1.748658    3.841206   -2.600341
     36          1           0        4.665070    0.670998    0.314013
     37          1           0        0.847517   -1.955087    1.906478
     38          1           0       -0.887848    1.829637    0.998491
     39          1           0       -3.288140    1.903533    0.584930
     40          1           0       -3.294151   -2.302358   -0.092598
     41          1           0       -0.894981   -2.371882    0.262450
     42          1           0       -5.379494    1.069666    1.677382
     43          1           0       -7.793024    1.147622    1.273793
     44          1           0       -8.768631   -0.049250   -0.649070
     45          1           0       -7.296363   -1.314344   -2.170207
     46          1           0       -4.880108   -1.370367   -1.781985
 ---------------------------------------------------------------------
                    Distance matrix (angstroms):
                    1          2          3          4          5
     1  C    0.000000
     2  C    1.387476   0.000000
     3  C    2.401885   1.388295   0.000000
     4  C    2.770165   2.400726   1.384148   0.000000
     5  C    2.402224   2.776050   2.402134   1.386220   0.000000
     6  C    1.385757   2.400951   2.769924   2.396173   1.384473
     7  N    2.446746   1.421752   2.421305   3.692302   4.197510
     8  C    3.115992   2.473977   3.559165   4.768624   5.129491
     9  C    4.308566   3.714867   4.772956   6.036851   6.418764
    10  C    3.369166   3.079756   4.083264   5.064332   5.237510
    11  C    5.129500   4.730782   5.803810   6.986386   7.258093
    12  O    4.636493   4.400772   5.440453   6.469372   6.624183
    13  Cl   5.307039   4.600078   5.528589   6.848296   7.345926
    14  O    6.269755   5.894390   6.960892   8.160798   8.431706
    15  C    3.967501   3.436175   3.957113   4.833724   5.212060
    16  C    4.726709   4.529980   4.983235   5.556446   5.700957
    17  O    5.053835   4.240487   4.594504   5.630790   6.254592
    18  C    4.811615   4.753636   4.946155   5.178011   5.211133
    19  C    5.921884   6.035176   6.213502   6.273114   6.142578
    20  C    6.827393   6.975343   7.322105   7.511036   7.352965
    21  C    6.753939   6.810271   7.334028   7.765427   7.697185
    22  C    5.805782   5.707983   6.299424   6.913095   6.977208
    23  C    8.117756   8.365642   8.676904   8.739710   8.481102
    24  C    8.913549   9.093585   9.213115   9.149295   8.947570
    25  C   10.164136  10.414003  10.533800  10.401910  10.128848
    26  C   10.678110  11.042809  11.309210  11.215378  10.834354
    27  C   10.032381  10.461087  10.886221  10.892484  10.460462
    28  C    8.763029   9.147468   9.614015   9.703312   9.321222
    29  H    2.874229   3.048955   4.156087   4.913409   4.798867
    30  H    3.437141   2.760312   3.009357   3.824968   4.325952
    31  H    1.075326   2.136755   3.375402   3.845018   3.376787
    32  H    3.372137   2.132090   1.075313   2.142875   3.380360
    33  H    3.845431   3.372925   2.131538   1.075283   2.138766
    34  H    3.376493   3.851191   3.376261   2.138759   1.075144
    35  H    2.132410   3.372689   3.845141   3.372589   2.137458
    36  H    3.119696   2.070980   2.796017   4.094067   4.718536
    37  H    5.705837   5.000213   5.478285   6.516525   7.060482
    38  H    4.309075   4.185882   4.148433   4.229785   4.331077
    39  H    6.281140   6.465436   6.487096   6.319989   6.108706
    40  H    7.650947   7.729982   8.325059   8.803007   8.715196
    41  H    6.119901   5.951832   6.670619   7.447529   7.567718
    42  H    8.696182   8.756245   8.728059   8.633259   8.549112
    43  H   10.849747  11.052208  11.055428  10.850614  10.621006
    44  H   11.692312  12.087474  12.341477  12.205136  11.791747
    45  H   10.624070  11.127557  11.644081  11.671679  11.172541
    46  H    8.401574   8.843240   9.454706   9.634096   9.211265
                    6          7          8          9         10
     6  C    0.000000
     7  N    3.710191   0.000000
     8  C    4.445197   1.349594   0.000000
     9  C    5.676180   2.411752   1.333960   0.000000
    10  C    4.499247   2.534868   1.515982   2.303002   0.000000
    11  C    6.432942   3.605962   2.286593   1.457790   2.290992
    12  O    5.801302   3.605569   2.303456   2.257877   1.411691
    13  Cl   6.674927   3.213620   2.736949   1.718275   3.991182
    14  O    7.575971   4.722358   3.435901   2.400312   3.409600
    15  C    4.827571   3.171389   2.556826   3.411808   1.540472
    16  C    5.308942   4.537560   3.898363   4.691013   2.544488
    17  O    5.998210   3.637948   2.965670   3.425703   2.405219
    18  C    5.027965   5.144461   4.808941   5.798402   3.577564
    19  C    5.961779   6.483481   6.089604   7.016028   4.755791
    20  C    7.007999   7.228341   6.600317   7.328231   5.140612
    21  C    7.200431   6.793790   5.950922   6.469052   4.460070
    22  C    6.448539   5.533746   4.635842   5.126908   3.178244
    23  C    8.162864   8.685462   8.062418   8.769192   6.588365
    24  C    8.824497   9.512263   9.009670   9.792042   7.591333
    25  C   10.004445  10.861452  10.345961  11.107794   8.908047
    26  C   10.556726  11.440626  10.824740  11.505181   9.339231
    27  C   10.018418  10.773087  10.059901  10.658261   8.552898
    28  C    8.840310   9.411278   8.679770   9.279111   7.171378
    29  H    3.880289   2.903814   2.162268   3.038239   1.081556
    30  H    4.154755   2.828230   2.710233   3.817198   2.128961
    31  H    2.139357   2.672715   2.973194   3.974573   3.177429
    32  H    3.845122   2.622394   3.734771   4.809212   4.391181
    33  H    3.372192   4.551042   5.649174   6.891154   5.944068
    34  H    2.137085   5.272632   6.186130   7.479965   6.205823
    35  H    1.075237   4.576058   5.159196   6.322296   5.074380
    36  H    4.326722   0.995962   1.994211   2.607094   3.397875
    37  H    6.695679   4.289718   3.381469   3.550171   2.663564
    38  H    4.365325   4.798809   4.752597   5.891227   3.775373
    39  H    6.085098   7.097787   6.862348   7.880245   5.610530
    40  H    8.149508   7.608075   6.651689   7.004345   5.169701
    41  H    6.942963   5.525117   4.440139   4.652582   3.074814
    42  H    8.577440   9.213015   8.814097   9.657921   7.474172
    43  H   10.617619  11.552012  11.109063  11.912684   9.709355
    44  H   11.526453  12.505745  11.891931  12.565053  10.404202
    45  H   10.634615  11.401578  10.629739  11.157305   9.121969
    46  H    8.583905   9.019290   8.199828   8.710041   6.691969
                   11         12         13         14         15
    11  C    0.000000
    12  O    1.353965   0.000000
    13  Cl   2.795113   3.905240   0.000000
    14  O    1.179633   2.222586   3.212533   0.000000
    15  C    3.361502   2.410068   4.989759   4.362217   0.000000
    16  C    4.304608   3.068950   6.353224   5.149580   1.520489
    17  O    3.315913   2.755235   4.780790   4.124736   1.395776
    18  C    5.585766   4.347986   7.426525   6.491378   2.512901
    19  C    6.635193   5.327653   8.685063   7.435608   3.798550
    20  C    6.675847   5.353744   9.030876   7.293955   4.334772
    21  C    5.626554   4.353839   8.155287   6.110052   3.819173
    22  C    4.343863   3.083084   6.803008   4.921489   2.551685
    23  C    8.047346   6.727650  10.477569   8.586657   5.825251
    24  C    9.158299   7.849336  11.481441   9.739258   6.640440
    25  C   10.420474   9.109593  12.805934  10.948935   8.007140
    26  C   10.705249   9.400169  13.216520  11.144791   8.620020
    27  C    9.781137   8.494676  12.365183  10.162129   8.017285
    28  C    8.423883   7.126669  10.987813   8.845713   6.652716
    29  H    3.016611   2.032014   4.664087   4.073707   2.162195
    30  H    4.122846   3.309972   5.242911   5.204000   1.080617
    31  H    4.673603   4.233957   4.996035   5.744443   4.140636
    32  H    5.886787   5.654661   5.401122   6.993506   4.083981
    33  H    7.852221   7.340794   7.632263   9.016721   5.519737
    34  H    8.279282   7.582957   8.414894   9.449986   6.102404
    35  H    6.961599   6.272219   7.352012   8.059096   5.514961
    36  H    3.997078   4.286275   2.821129   5.004310   4.035119
    37  H    3.060137   2.513285   4.918626   3.654477   1.935603
    38  H    5.942503   4.809646   7.420740   6.952037   2.698895
    39  H    7.603455   6.304735   9.522489   8.449585   4.642720
    40  H    5.986803   4.797973   8.654322   6.279993   4.675182
    41  H    3.647055   2.518564   6.268126   4.041133   2.771257
    42  H    9.139086   7.857755  11.310452   9.787032   6.362237
    43  H   11.280640   9.977834  13.595061  11.836197   8.711080
    44  H   11.745077  10.445760  14.276395  12.157034   9.695632
    45  H   10.211393   8.960381  12.848007  10.514710   8.727605
    46  H    7.784747   6.520042  10.401877   8.145981   6.385271
                   16         17         18         19         20
    16  C    0.000000
    17  O    2.440512   0.000000
    18  C    1.387048   3.490176   0.000000
    19  C    2.414203   4.675851   1.384949   0.000000
    20  C    2.814662   5.059582   2.413124   1.389731   0.000000
    21  C    2.410845   4.377050   2.752883   2.384751   1.393374
    22  C    1.392047   3.087632   2.384373   2.760756   2.417977
    23  C    4.305177   6.512632   3.783011   2.508151   1.490517
    24  C    5.159259   7.244328   4.400315   3.060265   2.507123
    25  C    6.513713   8.605467   5.761799   4.400709   3.781944
    26  C    7.099983   9.269534   6.496194   5.141879   4.285323
    27  C    6.512627   8.718262   6.100547   4.836356   3.781894
    28  C    5.157943   7.378007   4.835370   3.659087   2.507126
    29  H    2.679821   3.329220   3.447656   4.499059   4.916753
    30  H    2.115074   1.980953   2.537365   3.921345   4.758049
    31  H    4.846910   5.246152   5.120288   6.163027   6.888758
    32  H    5.242832   4.394308   5.303156   6.613960   7.697925
    33  H    6.192748   6.183113   5.692944   6.723888   8.026413
    34  H    6.423417   7.171553   5.748021   6.507727   7.763370
    35  H    5.800320   6.774119   5.456373   6.208331   7.180091
    36  H    5.462567   4.270390   6.093653   7.447049   8.191420
    37  H    2.599960   0.944139   3.829382   4.848427   4.968507
    38  H    2.136658   3.699269   1.076620   2.127910   3.379961
    39  H    3.380606   5.544782   2.130012   1.075342   2.137856
    40  H    3.377926   5.085252   3.827942   3.362971   2.139399
    41  H    2.146146   3.004699   3.366316   3.835116   3.380743
    42  H    4.968318   6.892958   4.080209   2.849618   2.708831
    43  H    7.255828   9.257506   6.410584   5.078023   4.638816
    44  H    8.175603  10.335933   7.556335   6.193324   5.360943
    45  H    7.254038   9.445394   6.944698   5.738452   4.638690
    46  H    4.966220   7.148326   4.872439   3.901508   2.709130
                   21         22         23         24         25
    21  C    0.000000
    22  C    1.381965   0.000000
    23  C    2.510471   3.785134   0.000000
    24  C    3.662018   4.839212   1.392513   0.000000
    25  C    4.839091   6.103333   2.414471   1.384371   0.000000
    26  C    5.143833   6.496798   2.794806   2.401187   1.384982
    27  C    4.401617   5.760435   2.414433   2.764305   2.392916
    28  C    3.060894   4.399007   1.392553   2.392541   2.764380
    29  H    4.389932   3.306002   6.292158   7.342860   8.613274
    30  H    4.525348   3.403072   6.219415   6.888126   8.264275
    31  H    6.673659   5.724736   8.159185   9.088436  10.310344
    32  H    7.643259   6.546079   9.083802   9.564058  10.909682
    33  H    8.378076   7.578152   9.201926   9.465538  10.693493
    34  H    8.266773   7.683238   8.762692   9.117975  10.218514
    35  H    7.433979   6.817456   8.214478   8.909371  10.005510
    36  H    7.718734   6.426217   9.656775  10.470741  11.827040
    37  H    4.069552   2.788407   6.370801   7.182055   8.503434
    38  H    3.829415   3.364952   4.635115   5.069502   6.402658
    39  H    3.364651   3.835889   2.714181   2.852512   4.084660
    40  H    1.075244   2.125090   2.713706   3.908263   4.880657
    41  H    2.121456   1.074646   4.631266   5.735479   6.939668
    42  H    3.904048   4.877551   2.138935   1.075529   2.131661
    43  H    5.741321   6.948268   3.384911   2.132793   1.075854
    44  H    6.195054   7.556519   3.870426   3.376631   2.139159
    45  H    5.077914   6.407442   3.384821   3.840100   3.370049
    46  H    2.848309   4.076438   2.139183   3.369778   3.839757
                   26         27         28         29         30
    26  C    0.000000
    27  C    1.385019   0.000000
    28  C    2.401233   1.384340   0.000000
    29  H    8.970544   8.141370   6.783258   0.000000
    30  H    8.985280   8.492018   7.159772   2.542314   0.000000
    31  H   10.694997   9.926395   8.650486   2.527978   3.878853
    32  H   11.751331  11.373562  10.089928   4.704942   3.145705
    33  H   11.602245  11.396632  10.253106   5.869460   4.457077
    34  H   10.941125  10.654152   9.603557   5.698971   5.209487
    35  H   10.454380   9.876376   8.764090   4.280061   4.959176
    36  H   12.420337  11.752834  10.386888   3.831277   3.690367
    37  H    9.076647   8.457549   7.127756   3.587164   2.782863
    38  H    7.233209   6.941795   5.735278   3.633753   2.267872
    39  H    4.957991   4.880844   3.908190   5.275391   4.568824
    40  H    4.957018   4.082621   2.850154   5.125418   5.478042
    41  H    7.226124   6.391346   5.058465   3.389737   3.793956
    42  H    3.372177   3.839652   3.369630   7.308564   6.489400
    43  H    2.137624   3.370048   3.840196   9.446037   8.886591
    44  H    1.075620   2.139157   3.376638  10.018385  10.054069
    45  H    2.137677   1.075825   2.132666   8.666241   9.260005
    46  H    3.372136   2.131480   1.075525   6.262918   6.989730
                   31         32         33         34         35
    31  H    0.000000
    32  H    4.257722   0.000000
    33  H    4.920203   2.464678   0.000000
    34  H    4.265143   4.269929   2.465860   0.000000
    35  H    2.457820   4.920332   4.263823   2.464410   0.000000
    36  H    3.326492   2.772662   4.856625   5.776759   5.200878
    37  H    5.755337   5.310169   7.102475   7.974710   7.397330
    38  H    4.823366   4.528441   4.669116   4.833084   4.893788
    39  H    6.622322   6.928784   6.658688   6.300073   6.266567
    40  H    7.473601   8.617920   9.436381   9.291710   8.334391
    41  H    5.914186   6.851838   8.162020   8.357464   7.333953
    42  H    8.990123   9.004619   8.850832   8.706275   8.763042
    43  H   11.074507  11.390683  11.045545  10.643154  10.644623
    44  H   11.702574  12.792555  12.569751  11.848935  11.382288
    45  H   10.425998  12.169495  12.229149  11.371344  10.420034
    46  H    8.166661   9.966051  10.279517   9.566811   8.471761
                   36         37         38         39         40
    36  H    0.000000
    37  H    4.899590   0.000000
    38  H    5.713655   4.261463   0.000000
    39  H    8.052707   5.808536   2.436780   0.000000
    40  H    8.506196   4.611975   4.904503   4.260117   0.000000
    41  H    6.338450   2.431634   4.265509   4.910232   2.426295
    42  H   10.144505   6.926563   4.605793   2.502508   4.341893
    43  H   12.504097   9.202502   6.944234   4.619514   5.831745
    44  H   13.487424  10.130812   8.267491   5.947428   5.946099
    45  H   12.376947   9.129770   7.809887   5.831926   4.616311
    46  H    9.983527   6.837569   5.823162   4.342243   2.497578
                   41         42         43         44         45
    41  H    0.000000
    42  H    5.827276   0.000000
    43  H    7.809784   2.448283   0.000000
    44  H    8.259531   4.260352   2.466113   0.000000
    45  H    6.929206   4.915469   4.262521   2.466150   0.000000
    46  H    4.589552   4.262671   4.915600   4.260218   2.447885
                   46
    46  H    0.000000
 Stoichiometry    C23H18ClNO3
 Framework group  C1[X(C23H18ClNO3)]
 Deg. of freedom   132
 Full point group                 C1      NOp   1
 Largest Abelian subgroup         C1      NOp   1
 Largest concise Abelian subgroup C1      NOp   1
                         Standard orientation:                         
 ---------------------------------------------------------------------
 Center     Atomic      Atomic             Coordinates (Angstroms)
 Number     Number       Type             X           Y           Z
 ---------------------------------------------------------------------
      1          6           0       -2.654853    2.326617    1.403677
      2          6           0       -3.135210    1.988681    0.146638
      3          6           0       -3.111170    2.926260   -0.876949
      4          6           0       -2.602591    4.192228   -0.643413
      5          6           0       -2.100316    4.523429    0.605439
      6          6           0       -2.125278    3.587813    1.625618
      7          7           0       -3.691411    0.705101   -0.107216
      8          6           0       -3.104320   -0.485088    0.138094
      9          6           0       -3.681885   -1.685121    0.214180
     10          6           0       -1.610597   -0.682502    0.305491
     11          6           0       -2.668990   -2.710313    0.433673
     12          8           0       -1.478834   -2.071026    0.523460
     13         17           0       -5.356087   -2.038793    0.057872
     14          8           0       -2.768012   -3.881495    0.533984
     15          6           0       -0.793579   -0.280592   -0.937088
     16          6           0        0.703366   -0.273643   -0.670639
     17          8           0       -1.162723   -1.073068   -2.025162
     18          6           0        1.407470    0.918325   -0.756388
     19          6           0        2.773181    0.961090   -0.530358
     20          6           0        3.480011   -0.193594   -0.216594
     21          6           0        2.771143   -1.390215   -0.132365
     22          6           0        1.407356   -1.431494   -0.351932
     23          6           0        4.950480   -0.153861    0.023786
     24          6           0        5.792576    0.559376   -0.825484
     25          6           0        7.158237    0.597199   -0.601824
     26          6           0        7.707499   -0.077996    0.475487
     27          6           0        6.880376   -0.791428    1.327050
     28          6           0        5.514776   -0.828938    1.103159
     29          1           0       -1.235239   -0.162187    1.176204
     30          1           0       -1.083283    0.726493   -1.200878
     31          1           0       -2.709974    1.613679    2.206801
     32          1           0       -3.482883    2.654621   -1.848720
     33          1           0       -2.588946    4.914750   -1.439660
     34          1           0       -1.697358    5.504355    0.782479
     35          1           0       -1.748658    3.841206    2.600341
     36          1           0       -4.665070    0.670998   -0.314013
     37          1           0       -0.847517   -1.955087   -1.906478
     38          1           0        0.887848    1.829637   -0.998491
     39          1           0        3.288140    1.903533   -0.584930
     40          1           0        3.294151   -2.302358    0.092598
     41          1           0        0.894981   -2.371882   -0.262450
     42          1           0        5.379494    1.069666   -1.677382
     43          1           0        7.793024    1.147622   -1.273793
     44          1           0        8.768631   -0.049250    0.649070
     45          1           0        7.296363   -1.314344    2.170207
     46          1           0        4.880108   -1.370367    1.781985
 ---------------------------------------------------------------------
 Rotational constants (GHZ):      0.2645002      0.0812459      0.0665989
 Leave Link  202 at Fri Jul 05 20:59:58 2019, MaxMem=   209715200 cpu:         0.0
 (Enter C:\G09W\l301.exe)
 Standard basis: 6-311++G(d,p) (5D, 7F)
 Ernie: Thresh=  0.10000D-02 Tol=  0.10000D-05 Strict=F.
 There are   778 symmetry adapted cartesian basis functions of A   symmetry.
 There are   750 symmetry adapted basis functions of A   symmetry.
   750 basis functions,  1187 primitive gaussians,   778 cartesian basis functions
   102 alpha electrons      102 beta electrons
       nuclear repulsion energy      2552.8357942967 Hartrees.
 IExCor=  402 DFT=T Ex+Corr=B3LYP ExCW=0 ScaHFX=  0.200000
 ScaDFX=  0.800000  0.720000  1.000000  0.810000 ScalE2=  1.000000  1.000000
 IRadAn=      0 IRanWt=     -1 IRanGd=            0 ICorTp=0 IEmpDi=  4
 NAtoms=   46 NActive=   46 NUniq=   46 SFac= 1.00D+00 NAtFMM=   60 NAOKFM=F Big=F
 Integral buffers will be    262144 words long.
 Raffenetti 2 integral format.
 Two-electron integral symmetry is turned on.
 Leave Link  301 at Fri Jul 05 20:59:58 2019, MaxMem=   209715200 cpu:         0.0
 (Enter C:\G09W\l302.exe)
 NPDir=0 NMtPBC=     1 NCelOv=     1 NCel=       1 NClECP=     1 NCelD=      1
         NCelK=      1 NCelE2=     1 NClLst=     1 CellRange=     0.0.
 One-electron integrals computed using PRISM.
 NBasis=   750 RedAO= T EigKep=  1.37D-06  NBF=   750
 NBsUse=   743 1.00D-06 EigRej=  9.97D-07 NBFU=   743
 Precomputing XC quadrature grid using
 IXCGrd= 4 IRadAn=           0 IRanWt=          -1 IRanGd=           0 AccXCQ= 0.00D+00.
 Generated NRdTot=       0 NPtTot=           0 NUsed=           0 NTot=          16
 NSgBfM=   747   747   750   750   750 MxSgAt=    46 MxSgA2=    46.
 Leave Link  302 at Fri Jul 05 21:00:02 2019, MaxMem=   209715200 cpu:         4.0
 (Enter C:\G09W\l303.exe)
 DipDrv:  MaxL=1.
 Leave Link  303 at Fri Jul 05 21:00:03 2019, MaxMem=   209715200 cpu:         1.0
 (Enter C:\G09W\l401.exe)
 ExpMin= 3.60D-02 ExpMax= 1.06D+05 ExpMxC= 3.62D+03 IAcc=3 IRadAn=         5 AccDes= 0.00D+00
 Harris functional with IExCor=  402 and IRadAn=       5 diagonalized for initial guess.
 HarFok:  IExCor=  402 AccDes= 0.00D+00 IRadAn=         5 IDoV= 1 UseB2=F ITyADJ=14
 ICtDFT=  3500011 ScaDFX=  1.000000  1.000000  1.000000  1.000000
 FoFCou: FMM=F IPFlag=           0 FMFlag=      100000 FMFlg1=           0
         NFxFlg=           0 DoJE=T BraDBF=F KetDBF=T FulRan=T
         wScrn=  0.000000 ICntrl=     500 IOpCl=  0 I1Cent=   200000004 NGrid=           0
         NMat0=    1 NMatS0=      1 NMatT0=    0 NMatD0=    1 NMtDS0=    0 NMtDT0=    0
 Petite list used in FoFCou.
 Harris En= -1628.24491809130    
 JPrj=0 DoOrth=F DoCkMO=F.
 Leave Link  401 at Fri Jul 05 21:00:56 2019, MaxMem=   209715200 cpu:        53.0
 (Enter C:\G09W\l502.exe)
 Closed shell SCF:
 Using DIIS extrapolation, IDIIS=  1040.
 Integral symmetry usage will be decided dynamically.
 IVT=     1843792 IEndB=     1843792 NGot=   209715200 MDV=   208494111
 LenX=   208494111 LenY=   207888049
 Requested convergence on RMS density matrix=1.00D-08 within 128 cycles.
 Requested convergence on MAX density matrix=1.00D-06.
 Requested convergence on             energy=1.00D-06.
 No special actions if energy rises.
 Fock matrices will be formed incrementally for  20 cycles.

 Cycle   1  Pass 1  IDiag  1:
 FoFJK:  IHMeth= 1 ICntrl=       0 DoSepK=F KAlg= 0 I1Cent=   0 FoldK=F
 IRaf= 740000000 NMat=   1 IRICut=       1 DoRegI=T DoRafI=F ISym2E= 0.
 FoFCou: FMM=F IPFlag=           0 FMFlag=      100000 FMFlg1=           0
         NFxFlg=           0 DoJE=F BraDBF=F KetDBF=F FulRan=T
         wScrn=  0.000000 ICntrl=       0 IOpCl=  0 I1Cent=           0 NGrid=           0
         NMat0=    1 NMatS0=      1 NMatT0=    0 NMatD0=    1 NMtDS0=    0 NMtDT0=    0
 Symmetry not used in FoFCou.
 E= -1627.58143447633    
 DIIS: error= 2.23D-02 at cycle   1 NSaved=   1.
 NSaved= 1 IEnMin= 1 EnMin= -1627.58143447633     IErMin= 1 ErrMin= 2.23D-02
 ErrMax= 2.23D-02  0.00D+00 EMaxC= 1.00D-01 BMatC= 7.83D-01 BMatP= 7.83D-01
 IDIUse=3 WtCom= 7.77D-01 WtEn= 2.23D-01
 Coeff-Com:  0.100D+01
 Coeff-En:   0.100D+01
 Coeff:      0.100D+01
 Gap=     0.342 Goal=   None    Shift=    0.000
 GapD=    0.342 DampG=1.000 DampE=0.500 DampFc=0.5000 IDamp=-1.
 Damping current iteration by 5.00D-01
 RMSDP=3.00D-02 MaxDP=2.54D+00              OVMax= 2.41D-01

 Cycle   2  Pass 1  IDiag  1:
 RMSU=  1.50D-02    CP:  9.85D-01
 E= -1627.83352627843     Delta-E=       -0.252091802100 Rises=F Damp=T
 DIIS: error= 6.31D-03 at cycle   2 NSaved=   2.
 NSaved= 2 IEnMin= 2 EnMin= -1627.83352627843     IErMin= 2 ErrMin= 6.31D-03
 ErrMax= 6.31D-03  0.00D+00 EMaxC= 1.00D-01 BMatC= 7.68D-02 BMatP= 7.83D-01
 IDIUse=3 WtCom= 9.37D-01 WtEn= 6.31D-02
 Coeff-Com:  0.988D-01 0.901D+00
 Coeff-En:   0.205D+00 0.795D+00
 Coeff:      0.105D+00 0.895D+00
 Gap=     0.232 Goal=   None    Shift=    0.000
 RMSDP=1.23D-02 MaxDP=1.83D+00 DE=-2.52D-01 OVMax= 1.42D-01

 Cycle   3  Pass 1  IDiag  1:
 RMSU=  7.04D-03    CP:  8.98D-01  3.87D-01
 E= -1628.16703968126     Delta-E=       -0.333513402835 Rises=F Damp=F
 DIIS: error= 1.28D-02 at cycle   3 NSaved=   3.
 NSaved= 3 IEnMin= 3 EnMin= -1628.16703968126     IErMin= 2 ErrMin= 6.31D-03
 ErrMax= 1.28D-02  0.00D+00 EMaxC= 1.00D-01 BMatC= 9.76D-02 BMatP= 7.68D-02
 IDIUse=2 WtCom= 0.00D+00 WtEn= 1.00D+00
 Coeff-En:   0.000D+00 0.000D+00 0.100D+01
 Coeff:      0.000D+00 0.000D+00 0.100D+01
 Gap=     0.211 Goal=   None    Shift=    0.000
 RMSDP=8.03D-03 MaxDP=5.05D-01 DE=-3.34D-01 OVMax= 2.69D-01

 Cycle   4  Pass 1  IDiag  1:
 RMSU=  7.06D-03    CP:  9.11D-01  6.28D-01  1.16D+00
 E= -1627.77534621008     Delta-E=        0.391693471180 Rises=F Damp=F
 DIIS: error= 2.38D-02 at cycle   4 NSaved=   4.
 NSaved= 4 IEnMin= 3 EnMin= -1628.16703968126     IErMin= 2 ErrMin= 6.31D-03
 ErrMax= 2.38D-02  0.00D+00 EMaxC= 1.00D-01 BMatC= 5.83D-01 BMatP= 7.68D-02
 IDIUse=2 WtCom= 0.00D+00 WtEn= 1.00D+00
 Coeff-En:   0.000D+00 0.000D+00 0.807D+00 0.193D+00
 Coeff:      0.000D+00 0.000D+00 0.807D+00 0.193D+00
 Gap=     0.196 Goal=   None    Shift=    0.000
 RMSDP=4.66D-03 MaxDP=3.73D-01 DE= 3.92D-01 OVMax= 1.31D-01

 Cycle   5  Pass 1  IDiag  1:
 RMSU=  1.54D-03    CP:  8.75D-01  5.26D-01  1.04D+00  4.86D-01
 E= -1628.20460607748     Delta-E=       -0.429259867396 Rises=F Damp=F
 DIIS: error= 7.58D-03 at cycle   5 NSaved=   5.
 NSaved= 5 IEnMin= 5 EnMin= -1628.20460607748     IErMin= 2 ErrMin= 6.31D-03
 ErrMax= 7.58D-03  0.00D+00 EMaxC= 1.00D-01 BMatC= 4.87D-02 BMatP= 7.68D-02
 IDIUse=3 WtCom= 9.24D-01 WtEn= 7.58D-02
 Coeff-Com:  0.832D-02 0.139D-02 0.341D+00-0.661D-01 0.715D+00
 Coeff-En:   0.000D+00 0.000D+00 0.372D+00 0.000D+00 0.628D+00
 Coeff:      0.769D-02 0.128D-02 0.344D+00-0.611D-01 0.708D+00
 Gap=     0.186 Goal=   None    Shift=    0.000
 RMSDP=1.92D-03 MaxDP=1.21D-01 DE=-4.29D-01 OVMax= 4.06D-02

 Cycle   6  Pass 1  IDiag  1:
 RMSU=  8.29D-04    CP:  8.63D-01  4.83D-01  9.89D-01  2.80D-01  8.49D-01
 E= -1628.24108828608     Delta-E=       -0.036482208604 Rises=F Damp=F
 DIIS: error= 7.08D-04 at cycle   6 NSaved=   6.
 NSaved= 6 IEnMin= 6 EnMin= -1628.24108828608     IErMin= 6 ErrMin= 7.08D-04
 ErrMax= 7.08D-04  0.00D+00 EMaxC= 1.00D-01 BMatC= 4.31D-04 BMatP= 4.87D-02
 IDIUse=3 WtCom= 9.93D-01 WtEn= 7.08D-03
 Coeff-Com:  0.442D-02-0.319D-02 0.172D+00-0.561D-01 0.440D+00 0.443D+00
 Coeff-En:   0.000D+00 0.000D+00 0.000D+00 0.000D+00 0.000D+00 0.100D+01
 Coeff:      0.439D-02-0.316D-02 0.171D+00-0.557D-01 0.437D+00 0.447D+00
 Gap=     0.183 Goal=   None    Shift=    0.000
 RMSDP=4.75D-04 MaxDP=4.12D-02 DE=-3.65D-02 OVMax= 4.50D-03

 Cycle   7  Pass 1  IDiag  1:
 RMSU=  1.11D-04    CP:  8.67D-01  4.76D-01  1.01D+00  2.96D-01  8.41D-01
                    CP:  5.77D-01
 E= -1628.24143534816     Delta-E=       -0.000347062078 Rises=F Damp=F
 DIIS: error= 1.74D-04 at cycle   7 NSaved=   7.
 NSaved= 7 IEnMin= 7 EnMin= -1628.24143534816     IErMin= 7 ErrMin= 1.74D-04
 ErrMax= 1.74D-04  0.00D+00 EMaxC= 1.00D-01 BMatC= 2.50D-05 BMatP= 4.31D-04
 IDIUse=3 WtCom= 9.98D-01 WtEn= 1.74D-03
 Coeff-Com:  0.152D-02-0.227D-02 0.453D-01-0.167D-01 0.110D+00 0.149D+00
 Coeff-Com:  0.713D+00
 Coeff-En:   0.000D+00 0.000D+00 0.000D+00 0.000D+00 0.000D+00 0.000D+00
 Coeff-En:   0.100D+01
 Coeff:      0.152D-02-0.226D-02 0.452D-01-0.167D-01 0.110D+00 0.149D+00
 Coeff:      0.713D+00
 Gap=     0.183 Goal=   None    Shift=    0.000
 RMSDP=7.95D-05 MaxDP=7.45D-03 DE=-3.47D-04 OVMax= 1.49D-03

 Cycle   8  Pass 1  IDiag  1:
 RMSU=  5.17D-05    CP:  8.67D-01  4.76D-01  1.01D+00  2.90D-01  8.40D-01
                    CP:  5.60D-01  7.03D-01
 E= -1628.24145220230     Delta-E=       -0.000016854143 Rises=F Damp=F
 DIIS: error= 1.07D-04 at cycle   8 NSaved=   8.
 NSaved= 8 IEnMin= 8 EnMin= -1628.24145220230     IErMin= 8 ErrMin= 1.07D-04
 ErrMax= 1.07D-04  0.00D+00 EMaxC= 1.00D-01 BMatC= 6.67D-06 BMatP= 2.50D-05
 IDIUse=3 WtCom= 9.99D-01 WtEn= 1.07D-03
 Coeff-Com:  0.578D-03-0.129D-02 0.103D-01-0.411D-02 0.189D-01 0.425D-01
 Coeff-Com:  0.491D+00 0.442D+00
 Coeff-En:   0.000D+00 0.000D+00 0.000D+00 0.000D+00 0.000D+00 0.000D+00
 Coeff-En:   0.147D+00 0.853D+00
 Coeff:      0.578D-03-0.129D-02 0.103D-01-0.410D-02 0.188D-01 0.425D-01
 Coeff:      0.491D+00 0.443D+00
 Gap=     0.183 Goal=   None    Shift=    0.000
 RMSDP=3.89D-05 MaxDP=4.81D-03 DE=-1.69D-05 OVMax= 6.86D-04

 Cycle   9  Pass 1  IDiag  1:
 RMSU=  2.01D-05    CP:  8.67D-01  4.74D-01  1.01D+00  2.90D-01  8.42D-01
                    CP:  5.62D-01  8.04D-01  6.23D-01
 E= -1628.24145852160     Delta-E=       -0.000006319294 Rises=F Damp=F
 DIIS: error= 1.86D-05 at cycle   9 NSaved=   9.
 NSaved= 9 IEnMin= 9 EnMin= -1628.24145852160     IErMin= 9 ErrMin= 1.86D-05
 ErrMax= 1.86D-05  0.00D+00 EMaxC= 1.00D-01 BMatC= 1.99D-07 BMatP= 6.67D-06
 IDIUse=1 WtCom= 1.00D+00 WtEn= 0.00D+00
 Coeff-Com:  0.218D-03-0.584D-03 0.216D-02-0.781D-03 0.136D-02 0.112D-01
 Coeff-Com:  0.204D+00 0.231D+00 0.551D+00
 Coeff:      0.218D-03-0.584D-03 0.216D-02-0.781D-03 0.136D-02 0.112D-01
 Coeff:      0.204D+00 0.231D+00 0.551D+00
 Gap=     0.183 Goal=   None    Shift=    0.000
 RMSDP=1.04D-05 MaxDP=1.22D-03 DE=-6.32D-06 OVMax= 1.66D-04

 Cycle  10  Pass 1  IDiag  1:
 RMSU=  6.21D-06    CP:  8.67D-01  4.75D-01  1.01D+00  2.90D-01  8.40D-01
                    CP:  5.65D-01  7.94D-01  6.38D-01  7.24D-01
 E= -1628.24145868473     Delta-E=       -0.000000163133 Rises=F Damp=F
 DIIS: error= 7.67D-06 at cycle  10 NSaved=  10.
 NSaved=10 IEnMin=10 EnMin= -1628.24145868473     IErMin=10 ErrMin= 7.67D-06
 ErrMax= 7.67D-06  0.00D+00 EMaxC= 1.00D-01 BMatC= 4.39D-08 BMatP= 1.99D-07
 IDIUse=1 WtCom= 1.00D+00 WtEn= 0.00D+00
 Coeff-Com:  0.522D-04-0.161D-03-0.633D-04 0.633D-04-0.136D-02 0.149D-02
 Coeff-Com:  0.472D-01 0.704D-01 0.350D+00 0.532D+00
 Coeff:      0.522D-04-0.161D-03-0.633D-04 0.633D-04-0.136D-02 0.149D-02
 Coeff:      0.472D-01 0.704D-01 0.350D+00 0.532D+00
 Gap=     0.183 Goal=   None    Shift=    0.000
 RMSDP=4.26D-06 MaxDP=5.36D-04 DE=-1.63D-07 OVMax= 6.13D-05

 Cycle  11  Pass 1  IDiag  1:
 RMSU=  1.80D-06    CP:  8.67D-01  4.74D-01  1.01D+00  2.90D-01  8.40D-01
                    CP:  5.66D-01  8.09D-01  6.18D-01  7.00D-01  7.11D-01
 E= -1628.24145872739     Delta-E=       -0.000000042663 Rises=F Damp=F
 DIIS: error= 1.42D-06 at cycle  11 NSaved=  11.
 NSaved=11 IEnMin=11 EnMin= -1628.24145872739     IErMin=11 ErrMin= 1.42D-06
 ErrMax= 1.42D-06  0.00D+00 EMaxC= 1.00D-01 BMatC= 2.95D-09 BMatP= 4.39D-08
 IDIUse=1 WtCom= 1.00D+00 WtEn= 0.00D+00
 Coeff-Com:  0.127D-04-0.479D-04-0.164D-03 0.789D-04-0.700D-03 0.351D-03
 Coeff-Com:  0.107D-01 0.209D-01 0.148D+00 0.283D+00 0.538D+00
 Coeff:      0.127D-04-0.479D-04-0.164D-03 0.789D-04-0.700D-03 0.351D-03
 Coeff:      0.107D-01 0.209D-01 0.148D+00 0.283D+00 0.538D+00
 Gap=     0.183 Goal=   None    Shift=    0.000
 RMSDP=1.02D-06 MaxDP=1.24D-04 DE=-4.27D-08 OVMax= 1.20D-05

 Cycle  12  Pass 1  IDiag  1:
 RMSU=  4.36D-07    CP:  8.67D-01  4.74D-01  1.01D+00  2.90D-01  8.40D-01
                    CP:  5.66D-01  8.07D-01  6.28D-01  7.14D-01  6.81D-01
                    CP:  7.65D-01
 E= -1628.24145873035     Delta-E=       -0.000000002954 Rises=F Damp=F
 DIIS: error= 4.85D-07 at cycle  12 NSaved=  12.
 NSaved=12 IEnMin=12 EnMin= -1628.24145873035     IErMin=12 ErrMin= 4.85D-07
 ErrMax= 4.85D-07  0.00D+00 EMaxC= 1.00D-01 BMatC= 2.48D-10 BMatP= 2.95D-09
 IDIUse=1 WtCom= 1.00D+00 WtEn= 0.00D+00
 Coeff-Com: -0.107D-06-0.556D-05-0.104D-03 0.402D-04-0.270D-03 0.680D-04
 Coeff-Com:  0.961D-03 0.380D-02 0.389D-01 0.860D-01 0.261D+00 0.609D+00
 Coeff:     -0.107D-06-0.556D-05-0.104D-03 0.402D-04-0.270D-03 0.680D-04
 Coeff:      0.961D-03 0.380D-02 0.389D-01 0.860D-01 0.261D+00 0.609D+00
 Gap=     0.183 Goal=   None    Shift=    0.000
 RMSDP=4.02D-07 MaxDP=3.82D-05 DE=-2.95D-09 OVMax= 4.11D-06

 Cycle  13  Pass 1  IDiag  1:
 RMSU=  1.49D-07    CP:  8.67D-01  4.74D-01  1.01D+00  2.90D-01  8.40D-01
                    CP:  5.66D-01  8.06D-01  6.29D-01  7.28D-01  6.94D-01
                    CP:  7.45D-01  6.98D-01
 E= -1628.24145873057     Delta-E=       -0.000000000220 Rises=F Damp=F
 DIIS: error= 1.89D-07 at cycle  13 NSaved=  13.
 NSaved=13 IEnMin=13 EnMin= -1628.24145873057     IErMin=13 ErrMin= 1.89D-07
 ErrMax= 1.89D-07  0.00D+00 EMaxC= 1.00D-01 BMatC= 4.57D-11 BMatP= 2.48D-10
 IDIUse=1 WtCom= 1.00D+00 WtEn= 0.00D+00
 Coeff-Com: -0.165D-05 0.193D-05-0.529D-04 0.187D-04-0.105D-03 0.798D-05
 Coeff-Com: -0.475D-03 0.233D-03 0.827D-02 0.219D-01 0.962D-01 0.348D+00
 Coeff-Com:  0.526D+00
 Coeff:     -0.165D-05 0.193D-05-0.529D-04 0.187D-04-0.105D-03 0.798D-05
 Coeff:     -0.475D-03 0.233D-03 0.827D-02 0.219D-01 0.962D-01 0.348D+00
 Coeff:      0.526D+00
 Gap=     0.183 Goal=   None    Shift=    0.000
 RMSDP=1.37D-07 MaxDP=2.00D-05 DE=-2.20D-10 OVMax= 2.64D-06

 Cycle  14  Pass 1  IDiag  1:
 RMSU=  7.13D-08    CP:  8.67D-01  4.74D-01  1.01D+00  2.90D-01  8.40D-01
                    CP:  5.66D-01  8.06D-01  6.29D-01  7.26D-01  6.95D-01
                    CP:  7.54D-01  7.20D-01  8.02D-01
 E= -1628.24145873067     Delta-E=       -0.000000000106 Rises=F Damp=F
 DIIS: error= 8.32D-08 at cycle  14 NSaved=  14.
 NSaved=14 IEnMin=14 EnMin= -1628.24145873067     IErMin=14 ErrMin= 8.32D-08
 ErrMax= 8.32D-08  0.00D+00 EMaxC= 1.00D-01 BMatC= 8.24D-12 BMatP= 4.57D-11
 IDIUse=1 WtCom= 1.00D+00 WtEn= 0.00D+00
 Coeff-Com: -0.103D-05 0.224D-05-0.991D-05 0.234D-05-0.229D-05 0.114D-04
 Coeff-Com: -0.421D-03-0.604D-03-0.302D-02-0.413D-02 0.785D-02 0.930D-01
 Coeff-Com:  0.329D+00 0.579D+00
 Coeff:     -0.103D-05 0.224D-05-0.991D-05 0.234D-05-0.229D-05 0.114D-04
 Coeff:     -0.421D-03-0.604D-03-0.302D-02-0.413D-02 0.785D-02 0.930D-01
 Coeff:      0.329D+00 0.579D+00
 Gap=     0.183 Goal=   None    Shift=    0.000
 RMSDP=5.62D-08 MaxDP=6.53D-06 DE=-1.06D-10 OVMax= 9.69D-07

 Cycle  15  Pass 1  IDiag  1:
 RMSU=  1.98D-08    CP:  8.67D-01  4.74D-01  1.01D+00  2.90D-01  8.40D-01
                    CP:  5.66D-01  8.06D-01  6.29D-01  7.25D-01  6.95D-01
                    CP:  7.62D-01  7.29D-01  7.88D-01  6.86D-01
 E= -1628.24145873048     Delta-E=        0.000000000197 Rises=F Damp=F
 DIIS: error= 2.26D-08 at cycle  15 NSaved=  15.
 NSaved=15 IEnMin=14 EnMin= -1628.24145873067     IErMin=15 ErrMin= 2.26D-08
 ErrMax= 2.26D-08  0.00D+00 EMaxC= 1.00D-01 BMatC= 5.54D-13 BMatP= 8.24D-12
 IDIUse=1 WtCom= 1.00D+00 WtEn= 0.00D+00
 Coeff-Com: -0.462D-06 0.103D-05-0.280D-05 0.536D-06 0.260D-05 0.243D-05
 Coeff-Com: -0.194D-03-0.338D-03-0.219D-02-0.382D-02-0.330D-02 0.212D-01
 Coeff-Com:  0.135D+00 0.323D+00 0.530D+00
 Coeff:     -0.462D-06 0.103D-05-0.280D-05 0.536D-06 0.260D-05 0.243D-05
 Coeff:     -0.194D-03-0.338D-03-0.219D-02-0.382D-02-0.330D-02 0.212D-01
 Coeff:      0.135D+00 0.323D+00 0.530D+00
 Gap=     0.183 Goal=   None    Shift=    0.000
 RMSDP=9.55D-09 MaxDP=1.10D-06 DE= 1.97D-10 OVMax= 2.86D-07

 Cycle  16  Pass 1  IDiag  1:
 RMSU=  4.95D-09    CP:  8.67D-01  4.74D-01  1.01D+00  2.90D-01  8.40D-01
                    CP:  5.66D-01  8.06D-01  6.29D-01  7.25D-01  6.94D-01
                    CP:  7.63D-01  7.34D-01  7.99D-01  7.04D-01  7.78D-01
 E= -1628.24145873073     Delta-E=       -0.000000000256 Rises=F Damp=F
 DIIS: error= 7.84D-09 at cycle  16 NSaved=  16.
 NSaved=16 IEnMin=16 EnMin= -1628.24145873073     IErMin=16 ErrMin= 7.84D-09
 ErrMax= 7.84D-09  0.00D+00 EMaxC= 1.00D-01 BMatC= 7.35D-14 BMatP= 5.54D-13
 IDIUse=1 WtCom= 1.00D+00 WtEn= 0.00D+00
 Coeff-Com: -0.132D-06 0.311D-06-0.104D-06-0.997D-07 0.263D-05 0.147D-05
 Coeff-Com: -0.570D-04-0.126D-03-0.960D-03-0.184D-02-0.299D-02 0.796D-03
 Coeff-Com:  0.374D-01 0.118D+00 0.311D+00 0.539D+00
 Coeff:     -0.132D-06 0.311D-06-0.104D-06-0.997D-07 0.263D-05 0.147D-05
 Coeff:     -0.570D-04-0.126D-03-0.960D-03-0.184D-02-0.299D-02 0.796D-03
 Coeff:      0.374D-01 0.118D+00 0.311D+00 0.539D+00
 Gap=     0.183 Goal=   None    Shift=    0.000
 RMSDP=8.40D-09 MaxDP=1.40D-06 DE=-2.56D-10 OVMax= 9.83D-08

 Cycle  17  Pass 1  IDiag  1:
 RMSU=  2.65D-09    CP:  8.67D-01  4.74D-01  1.01D+00  2.90D-01  8.40D-01
                    CP:  5.66D-01  8.06D-01  6.29D-01  7.25D-01  6.95D-01
                    CP:  7.62D-01  7.35D-01  8.09D-01  7.10D-01  7.66D-01
                    CP:  6.66D-01
 E= -1628.24145873066     Delta-E=        0.000000000068 Rises=F Damp=F
 DIIS: error= 2.94D-09 at cycle  17 NSaved=  17.
 NSaved=17 IEnMin=16 EnMin= -1628.24145873073     IErMin=17 ErrMin= 2.94D-09
 ErrMax= 2.94D-09  0.00D+00 EMaxC= 1.00D-01 BMatC= 8.56D-15 BMatP= 7.35D-14
 IDIUse=1 WtCom= 1.00D+00 WtEn= 0.00D+00
 Coeff-Com: -0.267D-07 0.700D-07 0.180D-06-0.912D-07 0.118D-05 0.917D-06
 Coeff-Com: -0.144D-04-0.380D-04-0.311D-03-0.648D-03-0.129D-02-0.133D-02
 Coeff-Com:  0.871D-02 0.377D-01 0.125D+00 0.315D+00 0.517D+00
 Coeff:     -0.267D-07 0.700D-07 0.180D-06-0.912D-07 0.118D-05 0.917D-06
 Coeff:     -0.144D-04-0.380D-04-0.311D-03-0.648D-03-0.129D-02-0.133D-02
 Coeff:      0.871D-02 0.377D-01 0.125D+00 0.315D+00 0.517D+00
 Gap=     0.183 Goal=   None    Shift=    0.000
 RMSDP=1.84D-09 MaxDP=1.26D-07 DE= 6.82D-11 OVMax= 3.24D-08

 SCF Done:  E(RB3LYP) =  -1628.24145873     A.U. after   17 cycles
            NFock= 17  Conv=0.18D-08     -V/T= 2.0030
 KE= 1.623304076458D+03 PE=-8.919317966960D+03 EE= 3.114936637475D+03
 Leave Link  502 at Fri Jul 05 21:46:17 2019, MaxMem=   209715200 cpu:      2721.0
 (Enter C:\G09W\l601.exe)
 Copying SCF densities to generalized density rwf, IOpCl= 0 IROHF=0.

 **********************************************************************

            Population analysis using the SCF density.

 **********************************************************************

 Orbital symmetries:
       Occupied  (A) (A) (A) (A) (A) (A) (A) (A) (A) (A) (A) (A)
                 (A) (A) (A) (A) (A) (A) (A) (A) (A) (A) (A) (A)
                 (A) (A) (A) (A) (A) (A) (A) (A) (A) (A) (A) (A)
                 (A) (A) (A) (A) (A) (A) (A) (A) (A) (A) (A) (A)
                 (A) (A) (A) (A) (A) (A) (A) (A) (A) (A) (A) (A)
                 (A) (A) (A) (A) (A) (A) (A) (A) (A) (A) (A) (A)
                 (A) (A) (A) (A) (A) (A) (A) (A) (A) (A) (A) (A)
                 (A) (A) (A) (A) (A) (A) (A) (A) (A) (A) (A) (A)
                 (A) (A) (A) (A) (A) (A)
       Virtual   (A) (A) (A) (A) (A) (A) (A) (A) (A) (A) (A) (A)
                 (A) (A) (A) (A) (A) (A) (A) (A) (A) (A) (A) (A)
                 (A) (A) (A) (A) (A) (A) (A) (A) (A) (A) (A) (A)
                 (A) (A) (A) (A) (A) (A) (A) (A) (A) (A) (A) (A)
                 (A) (A) (A) (A) (A) (A) (A) (A) (A) (A) (A) (A)
                 (A) (A) (A) (A) (A) (A) (A) (A) (A) (A) (A) (A)
                 (A) (A) (A) (A) (A) (A) (A) (A) (A) (A) (A) (A)
                 (A) (A) (A) (A) (A) (A) (A) (A) (A) (A) (A) (A)
                 (A) (A) (A) (A) (A) (A) (A) (A) (A) (A) (A) (A)
                 (A) (A) (A) (A) (A) (A) (A) (A) (A) (A) (A) (A)
                 (A) (A) (A) (A) (A) (A) (A) (A) (A) (A) (A) (A)
                 (A) (A) (A) (A) (A) (A) (A) (A) (A) (A) (A) (A)
                 (A) (A) (A) (A) (A) (A) (A) (A) (A) (A) (A) (A)
                 (A) (A) (A) (A) (A) (A) (A) (A) (A) (A) (A) (A)
                 (A) (A) (A) (A) (A) (A) (A) (A) (A) (A) (A) (A)
                 (A) (A) (A) (A) (A) (A) (A) (A) (A) (A) (A) (A)
                 (A) (A) (A) (A) (A) (A) (A) (A) (A) (A) (A) (A)
                 (A) (A) (A) (A) (A) (A) (A) (A) (A) (A) (A) (A)
                 (A) (A) (A) (A) (A) (A) (A) (A) (A) (A) (A) (A)
                 (A) (A) (A) (A) (A) (A) (A) (A) (A) (A) (A) (A)
                 (A) (A) (A) (A) (A) (A) (A) (A) (A) (A) (A) (A)
                 (A) (A) (A) (A) (A) (A) (A) (A) (A) (A) (A) (A)
                 (A) (A) (A) (A) (A) (A) (A) (A) (A) (A) (A) (A)
                 (A) (A) (A) (A) (A) (A) (A) (A) (A) (A) (A) (A)
                 (A) (A) (A) (A) (A) (A) (A) (A) (A) (A) (A) (A)
                 (A) (A) (A) (A) (A) (A) (A) (A) (A) (A) (A) (A)
                 (A) (A) (A) (A) (A) (A) (A) (A) (A) (A) (A) (A)
                 (A) (A) (A) (A) (A) (A) (A) (A) (A) (A) (A) (A)
                 (A) (A) (A) (A) (A) (A) (A) (A) (A) (A) (A) (A)
                 (A) (A) (A) (A) (A) (A) (A) (A) (A) (A) (A) (A)
                 (A) (A) (A) (A) (A) (A) (A) (A) (A) (A) (A) (A)
                 (A) (A) (A) (A) (A) (A) (A) (A) (A) (A) (A) (A)
                 (A) (A) (A) (A) (A) (A) (A) (A) (A) (A) (A) (A)
                 (A) (A) (A) (A) (A) (A) (A) (A) (A) (A) (A) (A)
                 (A) (A) (A) (A) (A) (A) (A) (A) (A) (A) (A) (A)
                 (A) (A) (A) (A) (A) (A) (A) (A) (A) (A) (A) (A)
                 (A) (A) (A) (A) (A) (A) (A) (A) (A) (A) (A) (A)
                 (A) (A) (A) (A) (A) (A) (A) (A) (A) (A) (A) (A)
                 (A) (A) (A) (A) (A) (A) (A) (A) (A) (A) (A) (A)
                 (A) (A) (A) (A) (A) (A) (A) (A) (A) (A) (A) (A)
                 (A) (A) (A) (A) (A) (A) (A) (A) (A) (A) (A) (A)
                 (A) (A) (A) (A) (A) (A) (A) (A) (A) (A) (A) (A)
                 (A) (A) (A) (A) (A) (A) (A) (A) (A) (A) (A) (A)
                 (A) (A) (A) (A) (A) (A) (A) (A) (A) (A) (A) (A)
                 (A) (A) (A) (A) (A) (A) (A) (A) (A) (A) (A) (A)
                 (A) (A) (A) (A) (A) (A) (A) (A) (A) (A) (A) (A)
                 (A) (A) (A) (A) (A) (A) (A) (A) (A) (A) (A) (A)
                 (A) (A) (A) (A) (A) (A) (A) (A) (A) (A) (A) (A)
                 (A) (A) (A) (A) (A) (A) (A) (A) (A) (A) (A) (A)
                 (A) (A) (A) (A) (A) (A) (A) (A) (A) (A) (A) (A)
                 (A) (A) (A) (A) (A) (A) (A) (A) (A) (A) (A) (A)
                 (A) (A) (A) (A) (A) (A) (A) (A) (A) (A) (A) (A)
[...]
   505. RY*(  10) C  24                  0.00007     1.30224   
   506. RY*(  11) C  24                  0.00002     0.90240   
   507. RY*(  12) C  24                  0.00001     2.33133   
   508. RY*(  13) C  24                  0.00001     1.92730   
   509. RY*(  14) C  24                  0.00001     2.74264   
   510. RY*(  15) C  24                  0.00000    20.47387   
   511. RY*(  16) C  24                  0.00000     2.58076   
   512. RY*(  17) C  24                  0.00001     1.55004   
   513. RY*(   1) C  25                  0.00588     1.05854   
   514. RY*(   2) C  25                  0.00212     1.30537   
   515. RY*(   3) C  25                  0.00081     0.49326   
   516. RY*(   4) C  25                  0.00062     1.65035   
   517. RY*(   5) C  25                  0.00044     0.98251   
   518. RY*(   6) C  25                  0.00017     1.48354   
   519. RY*(   7) C  25                  0.00011     3.16963   
   520. RY*(   8) C  25                  0.00005     2.57859   
   521. RY*(   9) C  25                  0.00005     1.69616   
   522. RY*(  10) C  25                  0.00002     3.18605   
   523. RY*(  11) C  25                  0.00001     0.83783   
   524. RY*(  12) C  25                  0.00000     1.83438   
   525. RY*(  13) C  25                  0.00001     0.71221   
   526. RY*(  14) C  25                  0.00000     2.68671   
   527. RY*(  15) C  25                  0.00000     2.01028   
   528. RY*(  16) C  25                  0.00000    20.05135   
   529. RY*(  17) C  25                  0.00000     1.65784   
   530. RY*(   1) C  26                  0.00601     1.11013   
   531. RY*(   2) C  26                  0.00214     1.27168   
   532. RY*(   3) C  26                  0.00099     0.46440   
   533. RY*(   4) C  26                  0.00055     1.65127   
   534. RY*(   5) C  26                  0.00037     0.83878   
   535. RY*(   6) C  26                  0.00034     0.90253   
   536. RY*(   7) C  26                  0.00011     3.01152   
   537. RY*(   8) C  26                  0.00007     2.94902   
   538. RY*(   9) C  26                  0.00004     2.72246   
   539. RY*(  10) C  26                  0.00001     1.16488   
   540. RY*(  11) C  26                  0.00001     1.62629   
   541. RY*(  12) C  26                  0.00001     1.98205   
   542. RY*(  13) C  26                  0.00000     1.57819   
   543. RY*(  14) C  26                  0.00000     2.57808   
   544. RY*(  15) C  26                  0.00000     0.37814   
   545. RY*(  16) C  26                  0.00000     2.47965   
   546. RY*(  17) C  26                  0.00000    20.68282   
   547. RY*(   1) C  27                  0.00589     1.06409   
   548. RY*(   2) C  27                  0.00213     1.29862   
   549. RY*(   3) C  27                  0.00083     0.54364   
   550. RY*(   4) C  27                  0.00060     1.59649   
   551. RY*(   5) C  27                  0.00044     0.98386   
   552. RY*(   6) C  27                  0.00017     1.49702   
   553. RY*(   7) C  27                  0.00011     3.22922   
   554. RY*(   8) C  27                  0.00005     2.79425   
   555. RY*(   9) C  27                  0.00005     1.51213   
   556. RY*(  10) C  27                  0.00002     3.37091   
   557. RY*(  11) C  27                  0.00000     0.73485   
   558. RY*(  12) C  27                  0.00000     2.48587   
   559. RY*(  13) C  27                  0.00001     0.66242   
   560. RY*(  14) C  27                  0.00000     2.62868   
   561. RY*(  15) C  27                  0.00000     1.82985   
   562. RY*(  16) C  27                  0.00000    19.72127   
   563. RY*(  17) C  27                  0.00000     1.50755   
   564. RY*(   1) C  28                  0.00547     1.31822   
   565. RY*(   2) C  28                  0.00197     1.07935   
   566. RY*(   3) C  28                  0.00089     0.79333   
   567. RY*(   4) C  28                  0.00078     0.85932   
   568. RY*(   5) C  28                  0.00059     1.49063   
   569. RY*(   6) C  28                  0.00026     1.60605   
   570. RY*(   7) C  28                  0.00016     2.47121   
   571. RY*(   8) C  28                  0.00009     3.22202   
   572. RY*(   9) C  28                  0.00006     2.08105   
   573. RY*(  10) C  28                  0.00007     1.39926   
   574. RY*(  11) C  28                  0.00003     2.33835   
   575. RY*(  12) C  28                  0.00000    20.21691   
   576. RY*(  13) C  28                  0.00000     2.89346   
   577. RY*(  14) C  28                  0.00001     2.40448   
   578. RY*(  15) C  28                  0.00001     1.85072   
   579. RY*(  16) C  28                  0.00001     2.29317   
   580. RY*(  17) C  28                  0.00001     1.79371   
   581. RY*(   1) H  29                  0.00134     0.86734   
   582. RY*(   2) H  29                  0.00026     1.72636   
   583. RY*(   3) H  29                  0.00018     2.04409   
   584. RY*(   4) H  29                  0.00013     1.79956   
   585. RY*(   5) H  29                  0.00010     2.03440   
   586. RY*(   6) H  29                  0.00009     1.38221   
   587. RY*(   1) H  30                  0.00227     0.57229   
   588. RY*(   2) H  30                  0.00029     1.88939   
   589. RY*(   3) H  30                  0.00023     1.84595   
   590. RY*(   4) H  30                  0.00016     1.46713   
   591. RY*(   5) H  30                  0.00012     2.02236   
   592. RY*(   6) H  30                  0.00009     2.13929   
   593. RY*(   1) H  31                  0.00139     0.51943   
   594. RY*(   2) H  31                  0.00031     1.86605   
   595. RY*(   3) H  31                  0.00024     1.92602   
   596. RY*(   4) H  31                  0.00010     1.93601   
   597. RY*(   5) H  31                  0.00007     0.60002   
   598. RY*(   6) H  31                  0.00004     2.61875   
   599. RY*(   1) H  32                  0.00088     0.86262   
   600. RY*(   2) H  32                  0.00022     1.74950   
   601. RY*(   3) H  32                  0.00017     1.93937   
   602. RY*(   4) H  32                  0.00011     1.98626   
   603. RY*(   5) H  32                  0.00006     0.29696   
   604. RY*(   6) H  32                  0.00004     2.51179   
   605. RY*(   1) H  33                  0.00075     0.66124   
   606. RY*(   2) H  33                  0.00021     2.31549   
   607. RY*(   3) H  33                  0.00019     1.58403   
   608. RY*(   4) H  33                  0.00011     1.96030   
   609. RY*(   5) H  33                  0.00003     2.53912   
   610. RY*(   6) H  33                  0.00003     0.17474   
   611. RY*(   1) H  34                  0.00073     0.69465   
   612. RY*(   2) H  34                  0.00020     2.29624   
   613. RY*(   3) H  34                  0.00020     1.62590   
   614. RY*(   4) H  34                  0.00011     1.95054   
   615. RY*(   5) H  34                  0.00003     2.45700   
   616. RY*(   6) H  34                  0.00003     0.19016   
   617. RY*(   1) H  35                  0.00074     0.77076   
   618. RY*(   2) H  35                  0.00020     2.41236   
   619. RY*(   3) H  35                  0.00019     2.10717   
   620. RY*(   4) H  35                  0.00012     2.10649   
   621. RY*(   5) H  35                  0.00004     0.26895   
   622. RY*(   6) H  35                  0.00004     2.54608   
   623. RY*(   1) H  36                  0.00159     0.74735   
   624. RY*(   2) H  36                  0.00067     1.62246   
   625. RY*(   3) H  36                  0.00042     1.60284   
   626. RY*(   4) H  36                  0.00020     1.98718   
   627. RY*(   5) H  36                  0.00014     1.25180   
   628. RY*(   6) H  36                  0.00005     2.44979   
   629. RY*(   1) H  37                  0.00177     1.64007   
   630. RY*(   2) H  37                  0.00128     1.80579   
   631. RY*(   3) H  37                  0.00070     1.62617   
   632. RY*(   4) H  37                  0.00029     1.27712   
   633. RY*(   5) H  37                  0.00015     0.48899   
   634. RY*(   6) H  37                  0.00001     2.49496   
   635. RY*(   1) H  38                  0.00078     1.09253   
   636. RY*(   2) H  38                  0.00022     1.88160   
   637. RY*(   3) H  38                  0.00019     1.63989   
   638. RY*(   4) H  38                  0.00013     2.02489   
   639. RY*(   5) H  38                  0.00004     2.43730   
   640. RY*(   1) H  39                  0.00149     0.46692   
   641. RY*(   2) H  39                  0.00030     2.37760   
   642. RY*(   3) H  39                  0.00018     1.66858   
   643. RY*(   4) H  39                  0.00013     1.82160   
   644. RY*(   5) H  39                  0.00008     0.73543   
   645. RY*(   6) H  39                  0.00004     2.34556   
   646. RY*(   1) H  40                  0.00146     0.46872   
   647. RY*(   2) H  40                  0.00033     2.37183   
   648. RY*(   3) H  40                  0.00018     1.63611   
   649. RY*(   4) H  40                  0.00014     1.81533   
   650. RY*(   5) H  40                  0.00007     0.69083   
   651. RY*(   6) H  40                  0.00004     2.49045   
   652. RY*(   1) H  41                  0.00107     1.31683   
   653. RY*(   2) H  41                  0.00025     1.72973   
   654. RY*(   3) H  41                  0.00016     1.69790   
   655. RY*(   4) H  41                  0.00014     1.66820   
   656. RY*(   5) H  41                  0.00008     1.37673   
   657. RY*(   6) H  41                  0.00004     1.76978   
   658. RY*(   1) H  42                  0.00137     0.46568   
   659. RY*(   2) H  42                  0.00031     2.41039   
   660. RY*(   3) H  42                  0.00019     1.63219   
   661. RY*(   4) H  42                  0.00013     1.99479   
   662. RY*(   5) H  42                  0.00005     0.55338   
   663. RY*(   6) H  42                  0.00004     2.35304   
   664. RY*(   1) H  43                  0.00084     0.65405   
   665. RY*(   2) H  43                  0.00020     2.32511   
   666. RY*(   3) H  43                  0.00019     1.60405   
   667. RY*(   4) H  43                  0.00011     1.96905   
   668. RY*(   5) H  43                  0.00004     2.45729   
   669. RY*(   6) H  43                  0.00001     0.21732   
   670. RY*(   1) H  44                  0.00076     0.67736   
   671. RY*(   2) H  44                  0.00020     1.59256   
   672. RY*(   3) H  44                  0.00019     2.34937   
   673. RY*(   4) H  44                  0.00011     1.97026   
   674. RY*(   5) H  44                  0.00003     2.47128   
   675. RY*(   6) H  44                  0.00001     0.16620   
   676. RY*(   1) H  45                  0.00083     0.65629   
   677. RY*(   2) H  45                  0.00020     2.32811   
   678. RY*(   3) H  45                  0.00019     1.60188   
   679. RY*(   4) H  45                  0.00011     1.97913   
   680. RY*(   5) H  45                  0.00004     2.47044   
   681. RY*(   6) H  45                  0.00001     0.21403   
   682. RY*(   1) H  46                  0.00136     0.44708   
   683. RY*(   2) H  46                  0.00031     2.45535   
   684. RY*(   3) H  46                  0.00019     0.20523   
   685. RY*(   4) H  46                  0.00013     0.44885   
   686. RY*(   5) H  46                  0.00005     0.28239   
   687. RY*(   6) H  46                  0.00004     1.28696   
   688. BD*(   1) C   1 - C   2          0.02644     0.53886   
   689. BD*(   2) C   1 - C   2          0.39416    -0.00150  695(v),700(v),706(r),105(g)
                                                    124(g),704(v),139(v),703(v)
                                                    123(g)
   690. BD*(   1) C   1 - C   6          0.01464     0.55631   
   691. BD*(   1) C   1 - H  31          0.01344     0.41644   
   692. BD*(   1) C   2 - C   3          0.02405     0.53806   
   693. BD*(   1) C   2 - N   7          0.02984     0.38275   
   694. BD*(   1) C   3 - C   4          0.01428     0.55806   
   695. BD*(   2) C   3 - C   4          0.32628     0.00664  700(v),689(v),156(g),139(g)
   696. BD*(   1) C   3 - H  32          0.01290     0.41371   
   697. BD*(   1) C   4 - C   5          0.01592     0.55719   
   698. BD*(   1) C   4 - H  33          0.01308     0.42608   
   699. BD*(   1) C   5 - C   6          0.01580     0.55866   
   700. BD*(   2) C   5 - C   6          0.33082     0.00945  695(v),689(v),173(g),190(g)
   701. BD*(   1) C   5 - H  34          0.01334     0.42859   
   702. BD*(   1) C   6 - H  35          0.01314     0.42552   
   703. BD*(   1) N   7 - C   8          0.02721     0.45422   
   704. BD*(   1) N   7 - H  36          0.02209     0.36303   
   705. BD*(   1) C   8 - C   9          0.02684     0.58928   
   706. BD*(   2) C   8 - C   9          0.30338    -0.00109  715(v),689(r),241(g),711(v)
                                                    712(v),225(g),307(v)
   707. BD*(   1) C   8 - C  10          0.03616     0.35768   
   708. BD*(   1) C   9 - C  11          0.07966     0.43663   
   709. BD*(   1) C   9 -Cl  13          0.02810     0.14571   
   710. BD*(   1) C  10 - O  12          0.02837     0.24549   
   711. BD*(   1) C  10 - C  15          0.05280     0.32143   
   712. BD*(   1) C  10 - H  29          0.02700     0.37566   
   713. BD*(   1) C  11 - O  12          0.12204     0.30727  710(g),707(v),274(g),711(v)
                                                    709(v),705(v),282(g),300(g)
   714. BD*(   1) C  11 - O  14          0.01282     0.63374   
   715. BD*(   2) C  11 - O  14          0.28602     0.01138  706(v),275(g),329(g),342(g)
   716. BD*(   1) C  15 - C  16          0.03628     0.39591   
   717. BD*(   1) C  15 - O  17          0.03162     0.27176   
   718. BD*(   1) C  15 - H  30          0.02362     0.37665   
   719. BD*(   1) C  16 - C  18          0.02263     0.56759   
   720. BD*(   2) C  16 - C  18          0.35921     0.02580  731(v),726(v),717(v),398(g)
                                                    711(v),466(v)
   721. BD*(   1) C  16 - C  22          0.02629     0.55102   
   722. BD*(   1) O  17 - H  37          0.00946     0.42091   
   723. BD*(   1) C  18 - C  19          0.01404     0.57560   
   724. BD*(   1) C  18 - H  38          0.01448     0.42713   
   725. BD*(   1) C  19 - C  20          0.02441     0.56048   
   726. BD*(   2) C  19 - C  20          0.35577     0.02815  731(v),720(v),736(v),415(g)
                                                    734(v),449(v)
   727. BD*(   1) C  19 - H  39          0.01399     0.43494   
   728. BD*(   1) C  20 - C  21          0.02448     0.55975   
   729. BD*(   1) C  20 - C  23          0.03160     0.45344   
   730. BD*(   1) C  21 - C  22          0.01507     0.56763   
   731. BD*(   2) C  21 - C  22          0.30970     0.02609  720(v),726(v),449(g),466(g)
                                                    450(g)
   732. BD*(   1) C  21 - H  40          0.01401     0.43833   
   733. BD*(   1) C  22 - H  41          0.01510     0.45242   
   734. BD*(   1) C  23 - C  24          0.02500     0.55297   
   735. BD*(   1) C  23 - C  28          0.02498     0.55361   
   736. BD*(   2) C  23 - C  28          0.36176     0.03082  738(v),743(v),726(v),566(g)
                                                    684(v),728(v),746(v)
   737. BD*(   1) C  24 - C  25          0.01513     0.57766   
   738. BD*(   2) C  24 - C  25          0.32364     0.03438  736(v),743(v),515(g),745(r)
                                                    499(g),498(g),748(r)
   739. BD*(   1) C  24 - H  42          0.01403     0.44085   
   740. BD*(   1) C  25 - C  26          0.01635     0.57876   
   741. BD*(   1) C  25 - H  43          0.01358     0.44002   
   742. BD*(   1) C  26 - C  27          0.01634     0.57403   
   743. BD*(   2) C  26 - C  27          0.33528     0.02624  736(v),738(v),532(g),549(g)
                                                    544(g)
   744. BD*(   1) C  26 - H  44          0.01364     0.45068   
   745. BD*(   1) C  27 - C  28          0.01512     3.62131   
   746. BD*(   1) C  27 - H  45          0.01356     2.70644   
   747. BD*(   1) C  28 - H  46          0.01403     3.16313   
       -------------------------------
              Total Lewis  198.72534  ( 97.4144%)
        Valence non-Lewis    4.85485  (  2.3798%)
        Rydberg non-Lewis    0.41981  (  0.2058%)
       -------------------------------
            Total unit  1  204.00000  (100.0000%)
           Charge unit  1    0.00000
 Leave Link  607 at Sat Jul 06 07:09:04 2019, MaxMem=   209715200 cpu:        38.0
 (Enter C:\G09W\l9999.exe)
 1|1|UNPC-CCSC-01038015|FOpt|RB3LYP|6-311++G(d,p)|C23H18Cl1N1O3|PERFIL|
 06-Jul-2019|0||#p opt b3lyp/6-311++g(d,p) pop=nbo geom=connectivity||9
 n.log||0,1|C,2.4506750082,2.288910437,-1.3035694891|C,3.1897481619,1.9
 990907714,-0.1521277394|C,3.479874547,3.0234213544,0.7567513708|C,3.02
 65746928,4.3171287523,0.5190356216|C,2.264356185,4.6009174924,-0.61379
 37369|C,1.9792388808,3.5816829978,-1.519984873|N,3.6993300518,0.701442
 7143,0.1017253875|C,3.1058066664,-0.5011327143,-0.1149992327|C,3.70524
 68575,-1.7131691848,-0.0787155493|C,1.619895521,-0.7293092634,-0.31587
 30865|C,2.7280975401,-2.7760890604,-0.2668976441|O,1.4954910215,-2.155
 4337155,-0.443205211|Cl,5.3860767623,-2.0110675967,0.1928952955|O,2.84
 50061524,-3.9678424665,-0.2913403364|C,0.7536854172,-0.2294149888,0.87
 1758312|C,-0.7387456325,-0.2424687513,0.5841888167|O,1.0956116353,-0.9
 299069682,2.0624324045|C,-1.4944765567,0.8998118266,0.8643929216|C,-2.
 870064358,0.9212302047,0.6583019211|C,-3.542660539,-0.2056356455,0.166
 2118596|C,-2.781260707,-1.3500697646,-0.1120942027|C,-1.4048625235,-1.
 3711171889,0.0895550386|C,-5.0111535468,-0.1870498342,-0.053042917|C,-
 5.8670808443,0.4501455019,0.8578860849|C,-7.2440687328,0.4690938972,0.
 6527938728|C,-7.7957810944,-0.1489694786,-0.4682350335|C,-6.9577692981
 ,-0.7861481075,-1.3818639005|C,-5.5808382526,-0.8052034077,-1.17615242
 16|H,1.2525077768,-0.2845464485,-1.2423620653|H,1.0462679947,0.8047017
 872,1.0632860448|H,2.272326316,1.5194786025,-2.0438674558|H,4.04927680
 29,2.7979198457,1.6518443921|H,3.2594172226,5.1020751883,1.2293792859|
 H,1.9036153952,5.6068646754,-0.791980006|H,1.4051472517,3.7942728764,-
 2.4145494214|H,4.643044369,0.6533010859,0.4630195293|H,0.7800561954,-1
 .8382915374,1.9839730952|H,-1.0005994655,1.788112483,1.2449372096|H,-3
 .4247164874,1.8301311609,0.8619085447|H,-3.2745424801,-2.2454159885,-0
 .4728635253|H,-0.849833141,-2.2724143088,-0.139985069|H,-5.4525652335,
 0.9124262811,1.7466820745|H,-7.8876893802,0.9590338509,1.3750237762|H,
 -8.8679452173,-0.1349542981,-0.627807415|H,-7.3756939316,-1.2632467411
 ,-2.2614017826|H,-4.9384540032,-1.2842593279,-1.9063567453||Version=IA
 32W-G09RevD.01|State=1-A|HF=-1628.2482744|RMSD=6.650e-009|RMSF=1.192e-
 005|Dipole=-0.5934878,2.7026838,-0.2747341|Quadrupole=7.0835811,-7.158
 9831,0.075402,15.2376255,2.9712486,2.1257529|PG=C01 [X(C23H18Cl1N1O3)]
 ||@


 IT IS NOT EASY TO DESCRIBE
     THE SEA WITH THE MOUTH

                   -- KOKYU
 Job cpu time:       0 days 10 hours  9 minutes  6.0 seconds.
 File lengths (MBytes):  RWF=    330 Int=      0 D2E=      0 Chk=     43 Scr=      1
 Normal termination of Gaussian 09 at Sat Jul 06 07:09:04 2019.
