 Entering Link 1 = C:\G09W\l1.exe PID=     51780.
  
 Copyright (c) 1988,1990,1992,1993,1995,1998,2003,2009,2013,
            Gaussian, Inc.  All Rights Reserved.
  
 This is part of the Gaussian(R) 09 program.  It is based on
 the Gaussian(R) 03 system (copyright 2003, Gaussian, Inc.),
 the Gaussian(R) 98 system (copyright 1998, Gaussian, Inc.),
 the Gaussian(R) 94 system (copyright 1995, Gaussian, Inc.),
 the Gaussian 92(TM) system (copyright 1992, Gaussian, Inc.),
 the Gaussian 90(TM) system (copyright 1990, Gaussian, Inc.),
 the Gaussian 88(TM) system (copyright 1988, Gaussian, Inc.),
 the Gaussian 86(TM) system (copyright 1986, Carnegie Mellon
 University), and the Gaussian 82(TM) system (copyright 1983,
 Carnegie Mellon University). Gaussian is a federally registered
 trademark of Gaussian, Inc.
  
 This software contains proprietary and confidential information,
 including trade secrets, belonging to Gaussian, Inc.
  
 This software is provided under written license and may be
 used, copied, transmitted, or stored only in accord with that
 written license.
  
 The following legend is applicable only to US Government
 contracts under FAR:
  
                    RESTRICTED RIGHTS LEGEND
  
 Use, reproduction and disclosure by the US Government is
 subject to restrictions as set forth in subparagraphs (a)
 and (c) of the Commercial Computer Software - Restricted
 Rights clause in FAR 52.227-19.
  
 Gaussian, Inc.
 340 Quinnipiac St., Bldg. 40, Wallingford CT 06492
  
  
 ---------------------------------------------------------------
 Warning -- This program may not be used in any manner that
 competes with the business of Gaussian, Inc. or will provide
 assistance to any competitor of Gaussian, Inc.  The licensee
 of this program is prohibited from giving any competitor of
 Gaussian, Inc. access to this program.  By using this program,
 the user acknowledges that Gaussian, Inc. is engaged in the
 business of creating and licensing software in the field of
 computational chemistry and represents and warrants to the
 licensee that it is not a competitor of Gaussian, Inc. and that
 it will not use this program in any manner prohibited above.
 ---------------------------------------------------------------
  

 Cite this work as:
 Gaussian 09, Revision D.01,
 M. J. Frisch, G. W. Trucks, H. B. Schlegel, G. E. Scuseria, 
 M. A. Robb, J. R. Cheeseman, G. Scalmani, V. Barone, B. Mennucci, 
 G. A. Petersson, H. Nakatsuji, M. Caricato, X. Li, H. P. Hratchian, 
 A. F. Izmaylov, J. Bloino, G. Zheng, J. L. Sonnenberg, M. Hada, 
 M. Ehara, K. Toyota, R. Fukuda, J. Hasegawa, M. Ishida, T. Nakajima, 
 Y. Honda, O. Kitao, H. Nakai, T. Vreven, J. A. Montgomery, Jr., 
 J. E. Peralta, F. Ogliaro, M. Bearpark, J. J. Heyd, E. Brothers, 
 K. N. Kudin, V. N. Staroverov, T. Keith, R. Kobayashi, J. Normand, 
 K. Raghavachari, A. Rendell, J. C. Burant, S. S. Iyengar, J. Tomasi, 
 M. Cossi, N. Rega, J. M. Millam, M. Klene, J. E. Knox, J. B. Cross, 
 V. Bakken, C. Adamo, J. Jaramillo, R. Gomperts, R. E. Stratmann, 
 O. Yazyev, A. J. Austin, R. Cammi, C. Pomelli, J. W. Ochterski, 
 R. L. Martin, K. Morokuma, V. G. Zakrzewski, G. A. Voth, 
 P. Salvador, J. J. Dannenberg, S. Dapprich, A. D. Daniels, 
 O. Farkas, J. B. Foresman, J. V. Ortiz, J. Cioslowski, 
 and D. J. Fox, Gaussian, Inc., Wallingford CT, 2013.
 
 ******************************************
 Gaussian 09:  IA32W-G09RevD.01 24-Apr-2013
                06-Jul-2019 
 ******************************************
 %nprocshared=4
 Will use up to    4 processors via shared memory.
 %mem=1600MB
 ----------------------------------------------------
 #p opt b3lyp/6-311++g(d,p) pop=nbo geom=connectivity
 ----------------------------------------------------
 1/14=-1,18=20,19=15,26=3,38=1,57=2/1,3;
 2/9=110,12=2,17=6,18=5,40=1/2;
 3/5=4,6=6,7=1111,11=2,16=1,25=1,30=1,71=1,74=-5/1,2,3;
 4//1;
 5/5=2,38=5/2;
 6/7=2,8=2,9=2,10=2,28=1,40=1/1,7;
 7//1,2,3,16;
 1/14=-1,18=20,19=15,26=3/3(2);
 2/9=110/2;
 99//99;
 2/9=110/2;
 3/5=4,6=6,7=1111,11=2,16=1,25=1,30=1,71=1,74=-5/1,2,3;
 4/5=5,16=3,69=1/1;
 5/5=2,38=5/2;
 7//1,2,3,16;
 1/14=-1,18=20,19=15,26=3/3(-5);
 2/9=110/2;
 6/7=2,8=2,9=2,10=2,19=2,28=1,40=1/1,7;
 99/9=1/99;
 Leave Link    1 at Sat Jul 06 07:09:05 2019, MaxMem=   209715200 cpu:         1.0
 (Enter C:\G09W\l101.exe)
 ------
 9o.log
 ------
 Symbolic Z-matrix:
 Charge =  0 Multiplicity = 1
 C                     2.81092   1.89621  -1.06175 
 C                     3.11307   1.35451   0.17187 
 C                     2.96311   2.1442    1.30951 
 C                     2.51183   3.43968   1.20751 
 C                     2.18805   3.97537  -0.0393 
 C                     2.33678   3.19749  -1.1765 
 N                     3.60995   0.02417   0.29896 
 C                     2.96183  -1.09448  -0.08617 
 C                     3.4705   -2.3068   -0.31567 
 C                     1.46241  -1.18064  -0.2863 
 C                     2.40416  -3.23292  -0.67369 
 O                     1.25317  -2.51877  -0.68501 
 Cl                    5.12157  -2.77261  -0.20892 
 O                     2.43628  -4.38453  -0.92827 
 C                     0.64702  -0.89829   0.98974 
 C                    -0.84135  -0.76348   0.70894 
 O                     0.94663  -1.84949   1.96605 
 C                    -1.47239   0.45057   0.9365 
 C                    -2.82807   0.60814   0.70091 
 C                    -3.59801  -0.45061   0.23451 
 C                    -2.9625   -1.66978   0.00797 
 C                    -1.60859  -1.82492   0.23742 
 C                    -5.05812  -0.28754  -0.01695 
 C                    -5.87175   0.36572   0.90523 
 C                    -7.22768   0.51818   0.67136 
 C                    -7.79566   0.01973  -0.48931 
 C                    -6.99699  -0.63253  -1.41396 
 C                    -5.64109  -0.78462  -1.17985 
 O                     1.7453    5.2437   -0.03269 
 C                     1.39973   5.87161  -1.23759 
 H                     1.13474  -0.5277   -1.08458 
 H                     0.99016   0.04467   1.38924 
 H                     2.94952   1.3065   -1.95087 
 H                     3.20069   1.72849   2.2724 
 H                     2.39408   4.05741   2.07814 
 H                     2.10461   3.583    -2.14983 
 H                     4.59119  -0.07794   0.4383 
 H                     0.59698  -2.69068   1.71801 
 H                    -0.90261   1.28926   1.2986 
 H                    -3.28517   1.56694   0.86875 
 H                    -3.53601  -2.51132  -0.33711 
 H                    -1.15324  -2.77725   0.03604 
 H                    -5.44531   0.73773   1.81983 
 H                    -7.8408    1.01922   1.39972 
 H                    -8.8493    0.13741  -0.67082 
 H                    -7.42732  -1.01823  -2.32141 
 H                    -5.0274   -1.27615  -1.91369 
 H                     2.25047   5.93604  -1.90836 
 H                     0.58603   5.35332  -1.73479 
 H                     1.0781    6.86841  -0.97587 
 
 NAtoms=     50 NQM=       50 NQMF=       0 NMMI=      0 NMMIF=      0
                NMic=       0 NMicF=      0.
                    Isotopes and Nuclear Properties:
 (Nuclear quadrupole moments (NQMom) in fm**2, nuclear magnetic moments (NMagM)
  in nuclear magnetons)

  Atom         1           2           3           4           5           6           7           8           9          10
 IAtWgt=          12          12          12          12          12          12          14          12          12          12
 AtmWgt=  12.0000000  12.0000000  12.0000000  12.0000000  12.0000000  12.0000000  14.0030740  12.0000000  12.0000000  12.0000000
 NucSpn=           0           0           0           0           0           0           2           0           0           0
 AtZEff=   0.0000000   0.0000000   0.0000000   0.0000000   0.0000000   0.0000000   0.0000000   0.0000000   0.0000000   0.0000000
 NQMom=    0.0000000   0.0000000   0.0000000   0.0000000   0.0000000   0.0000000   2.0440000   0.0000000   0.0000000   0.0000000
 NMagM=    0.0000000   0.0000000   0.0000000   0.0000000   0.0000000   0.0000000   0.4037610   0.0000000   0.0000000   0.0000000
 AtZNuc=   6.0000000   6.0000000   6.0000000   6.0000000   6.0000000   6.0000000   7.0000000   6.0000000   6.0000000   6.0000000

  Atom        11          12          13          14          15          16          17          18          19          20
 IAtWgt=          12          16          35          16          12          12          16          12          12          12
 AtmWgt=  12.0000000  15.9949146  34.9688527  15.9949146  12.0000000  12.0000000  15.9949146  12.0000000  12.0000000  12.0000000
 NucSpn=           0           0           3           0           0           0           0           0           0           0
 AtZEff=   0.0000000   0.0000000   0.0000000   0.0000000   0.0000000   0.0000000   0.0000000   0.0000000   0.0000000   0.0000000
 NQMom=    0.0000000   0.0000000  -8.1650000   0.0000000   0.0000000   0.0000000   0.0000000   0.0000000   0.0000000   0.0000000
 NMagM=    0.0000000   0.0000000   0.8218740   0.0000000   0.0000000   0.0000000   0.0000000   0.0000000   0.0000000   0.0000000
 AtZNuc=   6.0000000   8.0000000  17.0000000   8.0000000   6.0000000   6.0000000   8.0000000   6.0000000   6.0000000   6.0000000

  Atom        21          22          23          24          25          26          27          28          29          30
 IAtWgt=          12          12          12          12          12          12          12          12          16          12
 AtmWgt=  12.0000000  12.0000000  12.0000000  12.0000000  12.0000000  12.0000000  12.0000000  12.0000000  15.9949146  12.0000000
 NucSpn=           0           0           0           0           0           0           0           0           0           0
 AtZEff=   0.0000000   0.0000000   0.0000000   0.0000000   0.0000000   0.0000000   0.0000000   0.0000000   0.0000000   0.0000000
 NQMom=    0.0000000   0.0000000   0.0000000   0.0000000   0.0000000   0.0000000   0.0000000   0.0000000   0.0000000   0.0000000
 NMagM=    0.0000000   0.0000000   0.0000000   0.0000000   0.0000000   0.0000000   0.0000000   0.0000000   0.0000000   0.0000000
 AtZNuc=   6.0000000   6.0000000   6.0000000   6.0000000   6.0000000   6.0000000   6.0000000   6.0000000   8.0000000   6.0000000

  Atom        31          32          33          34          35          36          37          38          39          40
 IAtWgt=           1           1           1           1           1           1           1           1           1           1
 AtmWgt=   1.0078250   1.0078250   1.0078250   1.0078250   1.0078250   1.0078250   1.0078250   1.0078250   1.0078250   1.0078250
 NucSpn=           1           1           1           1           1           1           1           1           1           1
 AtZEff=   0.0000000   0.0000000   0.0000000   0.0000000   0.0000000   0.0000000   0.0000000   0.0000000   0.0000000   0.0000000
 NQMom=    0.0000000   0.0000000   0.0000000   0.0000000   0.0000000   0.0000000   0.0000000   0.0000000   0.0000000   0.0000000
 NMagM=    2.7928460   2.7928460   2.7928460   2.7928460   2.7928460   2.7928460   2.7928460   2.7928460   2.7928460   2.7928460
 AtZNuc=   1.0000000   1.0000000   1.0000000   1.0000000   1.0000000   1.0000000   1.0000000   1.0000000   1.0000000   1.0000000

  Atom        41          42          43          44          45          46          47          48          49          50
 IAtWgt=           1           1           1           1           1           1           1           1           1           1
 AtmWgt=   1.0078250   1.0078250   1.0078250   1.0078250   1.0078250   1.0078250   1.0078250   1.0078250   1.0078250   1.0078250
 NucSpn=           1           1           1           1           1           1           1           1           1           1
 AtZEff=   0.0000000   0.0000000   0.0000000   0.0000000   0.0000000   0.0000000   0.0000000   0.0000000   0.0000000   0.0000000
 NQMom=    0.0000000   0.0000000   0.0000000   0.0000000   0.0000000   0.0000000   0.0000000   0.0000000   0.0000000   0.0000000
 NMagM=    2.7928460   2.7928460   2.7928460   2.7928460   2.7928460   2.7928460   2.7928460   2.7928460   2.7928460   2.7928460
 AtZNuc=   1.0000000   1.0000000   1.0000000   1.0000000   1.0000000   1.0000000   1.0000000   1.0000000   1.0000000   1.0000000
 Leave Link  101 at Sat Jul 06 07:09:05 2019, MaxMem=   209715200 cpu:         0.0
 (Enter C:\G09W\l103.exe)

 GradGradGradGradGradGradGradGradGradGradGradGradGradGradGradGradGradGrad
 Berny optimization.
 Initialization pass.
                           ----------------------------
                           !    Initial Parameters    !
                           ! (Angstroms and Degrees)  !
 --------------------------                            --------------------------
 ! Name  Definition              Value          Derivative Info.                !
 --------------------------------------------------------------------------------
 ! R1    R(1,2)                  1.3808         estimate D2E/DX2                !
 ! R2    R(1,6)                  1.3897         estimate D2E/DX2                !
 ! R3    R(1,33)                 1.0759         estimate D2E/DX2                !
 ! R4    R(2,3)                  1.393          estimate D2E/DX2                !
 ! R5    R(2,7)                  1.4258         estimate D2E/DX2                !
 ! R6    R(3,4)                  1.3756         estimate D2E/DX2                !
 ! R7    R(3,34)                 1.0754         estimate D2E/DX2                !
 ! R8    R(4,5)                  1.3951         estimate D2E/DX2                !
 ! R9    R(4,35)                 1.074          estimate D2E/DX2                !
 ! R10   R(5,6)                  1.3858         estimate D2E/DX2                !
 ! R11   R(5,29)                 1.3434         estimate D2E/DX2                !
 ! R12   R(6,36)                 1.0723         estimate D2E/DX2                !
 ! R13   R(7,8)                  1.349          estimate D2E/DX2                !
 ! R14   R(7,37)                 0.9963         estimate D2E/DX2                !
 ! R15   R(8,9)                  1.3346         estimate D2E/DX2                !
 ! R16   R(8,10)                 1.5152         estimate D2E/DX2                !
 ! R17   R(9,11)                 1.457          estimate D2E/DX2                !
 ! R18   R(9,13)                 1.7188         estimate D2E/DX2                !
 ! R19   R(10,12)                1.4119         estimate D2E/DX2                !
 ! R20   R(10,15)                1.5404         estimate D2E/DX2                !
 ! R21   R(10,31)                1.0821         estimate D2E/DX2                !
 ! R22   R(11,12)                1.3546         estimate D2E/DX2                !
 ! R23   R(11,14)                1.1799         estimate D2E/DX2                !
 ! R24   R(15,16)                1.5206         estimate D2E/DX2                !
 ! R25   R(15,17)                1.3956         estimate D2E/DX2                !
 ! R26   R(15,32)                1.0801         estimate D2E/DX2                !
 ! R27   R(16,18)                1.3871         estimate D2E/DX2                !
 ! R28   R(16,22)                1.392          estimate D2E/DX2                !
 ! R29   R(17,38)                0.9441         estimate D2E/DX2                !
 ! R30   R(18,19)                1.385          estimate D2E/DX2                !
 ! R31   R(18,39)                1.0766         estimate D2E/DX2                !
 ! R32   R(19,20)                1.3897         estimate D2E/DX2                !
 ! R33   R(19,40)                1.0754         estimate D2E/DX2                !
 ! R34   R(20,21)                1.3934         estimate D2E/DX2                !
 ! R35   R(20,23)                1.4906         estimate D2E/DX2                !
 ! R36   R(21,22)                1.382          estimate D2E/DX2                !
 ! R37   R(21,41)                1.0753         estimate D2E/DX2                !
 ! R38   R(22,42)                1.0746         estimate D2E/DX2                !
 ! R39   R(23,24)                1.3925         estimate D2E/DX2                !
 ! R40   R(23,28)                1.3926         estimate D2E/DX2                !
 ! R41   R(24,25)                1.3844         estimate D2E/DX2                !
 ! R42   R(24,43)                1.0755         estimate D2E/DX2                !
 ! R43   R(25,26)                1.385          estimate D2E/DX2                !
 ! R44   R(25,44)                1.0759         estimate D2E/DX2                !
 ! R45   R(26,27)                1.385          estimate D2E/DX2                !
 ! R46   R(26,45)                1.0756         estimate D2E/DX2                !
 ! R47   R(27,28)                1.3843         estimate D2E/DX2                !
 ! R48   R(27,46)                1.0758         estimate D2E/DX2                !
 ! R49   R(28,47)                1.0755         estimate D2E/DX2                !
 ! R50   R(29,30)                1.402          estimate D2E/DX2                !
 ! R51   R(30,48)                1.0853         estimate D2E/DX2                !
 ! R52   R(30,49)                1.0853         estimate D2E/DX2                !
 ! R53   R(30,50)                1.0796         estimate D2E/DX2                !
 ! A1    A(2,1,6)              121.0492         estimate D2E/DX2                !
 ! A2    A(2,1,33)             119.6773         estimate D2E/DX2                !
 ! A3    A(6,1,33)             119.2723         estimate D2E/DX2                !
 ! A4    A(1,2,3)              118.9274         estimate D2E/DX2                !
 ! A5    A(1,2,7)              121.4634         estimate D2E/DX2                !
 ! A6    A(3,2,7)              119.583          estimate D2E/DX2                !
 ! A7    A(2,3,4)              120.574          estimate D2E/DX2                !
 ! A8    A(2,3,34)             119.232          estimate D2E/DX2                !
 ! A9    A(4,3,34)             120.1935         estimate D2E/DX2                !
 ! A10   A(3,4,5)              120.2655         estimate D2E/DX2                !
 ! A11   A(3,4,35)             121.1664         estimate D2E/DX2                !
 ! A12   A(5,4,35)             118.5668         estimate D2E/DX2                !
 ! A13   A(4,5,6)              119.5337         estimate D2E/DX2                !
 ! A14   A(4,5,29)             115.7603         estimate D2E/DX2                !
 ! A15   A(6,5,29)             124.706          estimate D2E/DX2                !
 ! A16   A(1,6,5)              119.6346         estimate D2E/DX2                !
 ! A17   A(1,6,36)             119.0417         estimate D2E/DX2                !
 ! A18   A(5,6,36)             121.3192         estimate D2E/DX2                !
 ! A19   A(2,7,8)              125.5114         estimate D2E/DX2                !
 ! A20   A(2,7,37)             116.8275         estimate D2E/DX2                !
 ! A21   A(8,7,37)             115.3477         estimate D2E/DX2                !
 ! A22   A(7,8,9)              128.2619         estimate D2E/DX2                !
 ! A23   A(7,8,10)             124.0776         estimate D2E/DX2                !
 ! A24   A(9,8,10)             107.6267         estimate D2E/DX2                !
 ! A25   A(8,9,11)             109.9191         estimate D2E/DX2                !
 ! A26   A(8,9,13)             126.9851         estimate D2E/DX2                !
 ! A27   A(11,9,13)            123.0939         estimate D2E/DX2                !
 ! A28   A(8,10,12)            103.76           estimate D2E/DX2                !
 ! A29   A(8,10,15)            113.8286         estimate D2E/DX2                !
 ! A30   A(8,10,31)            111.2718         estimate D2E/DX2                !
 ! A31   A(12,10,15)           109.2207         estimate D2E/DX2                !
 ! A32   A(12,10,31)           108.5831         estimate D2E/DX2                !
 ! A33   A(15,10,31)           109.8897         estimate D2E/DX2                !
 ! A34   A(9,11,12)            106.7866         estimate D2E/DX2                !
 ! A35   A(9,11,14)            130.8054         estimate D2E/DX2                !
 ! A36   A(12,11,14)           122.4066         estimate D2E/DX2                !
 ! A37   A(10,12,11)           111.8015         estimate D2E/DX2                !
 ! A38   A(10,15,16)           112.42           estimate D2E/DX2                !
 ! A39   A(10,15,17)           109.934          estimate D2E/DX2                !
 ! A40   A(10,15,32)           107.3533         estimate D2E/DX2                !
 ! A41   A(16,15,17)           113.5617         estimate D2E/DX2                !
 ! A42   A(16,15,32)           107.5699         estimate D2E/DX2                !
 ! A43   A(17,15,32)           105.5499         estimate D2E/DX2                !
 ! A44   A(15,16,18)           119.5122         estimate D2E/DX2                !
 ! A45   A(15,16,22)           122.3059         estimate D2E/DX2                !
 ! A46   A(18,16,22)           118.1796         estimate D2E/DX2                !
 ! A47   A(15,17,38)           110.1183         estimate D2E/DX2                !
 ! A48   A(16,18,19)           121.1311         estimate D2E/DX2                !
 ! A49   A(16,18,39)           119.7508         estimate D2E/DX2                !
 ! A50   A(19,18,39)           119.1176         estimate D2E/DX2                !
 ! A51   A(18,19,20)           120.8449         estimate D2E/DX2                !
 ! A52   A(18,19,40)           119.4035         estimate D2E/DX2                !
 ! A53   A(20,19,40)           119.7459         estimate D2E/DX2                !
 ! A54   A(19,20,21)           117.9351         estimate D2E/DX2                !
 ! A55   A(19,20,23)           121.0633         estimate D2E/DX2                !
 ! A56   A(21,20,23)           121.0015         estimate D2E/DX2                !
 ! A57   A(20,21,22)           121.2021         estimate D2E/DX2                !
 ! A58   A(20,21,41)           119.5841         estimate D2E/DX2                !
 ! A59   A(22,21,41)           119.207          estimate D2E/DX2                !
 ! A60   A(16,22,21)           120.7061         estimate D2E/DX2                !
 ! A61   A(16,22,42)           120.377          estimate D2E/DX2                !
 ! A62   A(21,22,42)           118.9138         estimate D2E/DX2                !
 ! A63   A(20,23,24)           120.7932         estimate D2E/DX2                !
 ! A64   A(20,23,28)           120.7909         estimate D2E/DX2                !
 ! A65   A(24,23,28)           118.4159         estimate D2E/DX2                !
 ! A66   A(23,24,25)           120.8012         estimate D2E/DX2                !
 ! A67   A(23,24,43)           119.5876         estimate D2E/DX2                !
 ! A68   A(25,24,43)           119.5982         estimate D2E/DX2                !
 ! A69   A(24,25,26)           120.2391         estimate D2E/DX2                !
 ! A70   A(24,25,44)           119.6762         estimate D2E/DX2                !
 ! A71   A(26,25,44)           120.0829         estimate D2E/DX2                !
 ! A72   A(25,26,27)           119.504          estimate D2E/DX2                !
 ! A73   A(25,26,45)           120.2494         estimate D2E/DX2                !
 ! A74   A(27,26,45)           120.2466         estimate D2E/DX2                !
 ! A75   A(26,27,28)           120.2407         estimate D2E/DX2                !
 ! A76   A(26,27,46)           120.0864         estimate D2E/DX2                !
 ! A77   A(28,27,46)           119.6717         estimate D2E/DX2                !
 ! A78   A(23,28,27)           120.7991         estimate D2E/DX2                !
 ! A79   A(23,28,47)           119.6066         estimate D2E/DX2                !
 ! A80   A(27,28,47)           119.584          estimate D2E/DX2                !
 ! A81   A(5,29,30)            119.991          estimate D2E/DX2                !
 ! A82   A(29,30,48)           111.3804         estimate D2E/DX2                !
 ! A83   A(29,30,49)           111.3855         estimate D2E/DX2                !
 ! A84   A(29,30,50)           106.178          estimate D2E/DX2                !
 ! A85   A(48,30,49)           109.4452         estimate D2E/DX2                !
 ! A86   A(48,30,50)           109.1802         estimate D2E/DX2                !
 ! A87   A(49,30,50)           109.1848         estimate D2E/DX2                !
 ! D1    D(6,1,2,3)             -1.3722         estimate D2E/DX2                !
 ! D2    D(6,1,2,7)           -179.5012         estimate D2E/DX2                !
 ! D3    D(33,1,2,3)           178.2317         estimate D2E/DX2                !
 ! D4    D(33,1,2,7)             0.1027         estimate D2E/DX2                !
 ! D5    D(2,1,6,5)              1.2574         estimate D2E/DX2                !
 ! D6    D(2,1,6,36)          -179.5001         estimate D2E/DX2                !
 ! D7    D(33,1,6,5)          -178.3481         estimate D2E/DX2                !
 ! D8    D(33,1,6,36)            0.8945         estimate D2E/DX2                !
 ! D9    D(1,2,3,4)              0.4807         estimate D2E/DX2                !
 ! D10   D(1,2,3,34)          -179.7638         estimate D2E/DX2                !
 ! D11   D(7,2,3,4)            178.6455         estimate D2E/DX2                !
 ! D12   D(7,2,3,34)            -1.5989         estimate D2E/DX2                !
 ! D13   D(1,2,7,8)            -60.8629         estimate D2E/DX2                !
 ! D14   D(1,2,7,37)           100.99           estimate D2E/DX2                !
 ! D15   D(3,2,7,8)            121.0201         estimate D2E/DX2                !
 ! D16   D(3,2,7,37)           -77.1269         estimate D2E/DX2                !
 ! D17   D(2,3,4,5)              0.5166         estimate D2E/DX2                !
 ! D18   D(2,3,4,35)          -179.9075         estimate D2E/DX2                !
 ! D19   D(34,3,4,5)          -179.2366         estimate D2E/DX2                !
 ! D20   D(34,3,4,35)            0.3393         estimate D2E/DX2                !
 ! D21   D(3,4,5,6)             -0.636          estimate D2E/DX2                !
 ! D22   D(3,4,5,29)           179.4182         estimate D2E/DX2                !
 ! D23   D(35,4,5,6)           179.7772         estimate D2E/DX2                !
 ! D24   D(35,4,5,29)           -0.1685         estimate D2E/DX2                !
 ! D25   D(4,5,6,1)             -0.2394         estimate D2E/DX2                !
 ! D26   D(4,5,6,36)          -179.4643         estimate D2E/DX2                !
 ! D27   D(29,5,6,1)           179.7011         estimate D2E/DX2                !
 ! D28   D(29,5,6,36)            0.4762         estimate D2E/DX2                !
 ! D29   D(4,5,29,30)          179.7402         estimate D2E/DX2                !
 ! D30   D(6,5,29,30)           -0.2024         estimate D2E/DX2                !
 ! D31   D(2,7,8,9)            161.2909         estimate D2E/DX2                !
 ! D32   D(2,7,8,10)           -21.0909         estimate D2E/DX2                !
 ! D33   D(37,7,8,9)            -0.7979         estimate D2E/DX2                !
 ! D34   D(37,7,8,10)          176.8203         estimate D2E/DX2                !
 ! D35   D(7,8,9,11)           178.275          estimate D2E/DX2                !
 ! D36   D(7,8,9,13)            -1.236          estimate D2E/DX2                !
 ! D37   D(10,8,9,11)            0.3449         estimate D2E/DX2                !
 ! D38   D(10,8,9,13)         -179.1662         estimate D2E/DX2                !
 ! D39   D(7,8,10,12)          179.8168         estimate D2E/DX2                !
 ! D40   D(7,8,10,15)          -61.5846         estimate D2E/DX2                !
 ! D41   D(7,8,10,31)           63.2385         estimate D2E/DX2                !
 ! D42   D(9,8,10,12)           -2.1453         estimate D2E/DX2                !
 ! D43   D(9,8,10,15)          116.4532         estimate D2E/DX2                !
 ! D44   D(9,8,10,31)         -118.7237         estimate D2E/DX2                !
 ! D45   D(8,9,11,12)            1.6888         estimate D2E/DX2                !
 ! D46   D(8,9,11,14)         -178.758          estimate D2E/DX2                !
 ! D47   D(13,9,11,12)        -178.7775         estimate D2E/DX2                !
 ! D48   D(13,9,11,14)           0.7758         estimate D2E/DX2                !
 ! D49   D(8,10,12,11)           3.3098         estimate D2E/DX2                !
 ! D50   D(15,10,12,11)       -118.4169         estimate D2E/DX2                !
 ! D51   D(31,10,12,11)        121.7597         estimate D2E/DX2                !
 ! D52   D(8,10,15,16)         170.4468         estimate D2E/DX2                !
 ! D53   D(8,10,15,17)         -61.9918         estimate D2E/DX2                !
 ! D54   D(8,10,15,32)          52.3444         estimate D2E/DX2                !
 ! D55   D(12,10,15,16)        -74.1271         estimate D2E/DX2                !
 ! D56   D(12,10,15,17)         53.4342         estimate D2E/DX2                !
 ! D57   D(12,10,15,32)        167.7704         estimate D2E/DX2                !
 ! D58   D(31,10,15,16)         44.8878         estimate D2E/DX2                !
 ! D59   D(31,10,15,17)        172.4491         estimate D2E/DX2                !
 ! D60   D(31,10,15,32)        -73.2147         estimate D2E/DX2                !
 ! D61   D(9,11,12,10)          -3.1869         estimate D2E/DX2                !
 ! D62   D(14,11,12,10)        177.2136         estimate D2E/DX2                !
 ! D63   D(10,15,16,18)       -115.7328         estimate D2E/DX2                !
 ! D64   D(10,15,16,22)         64.8186         estimate D2E/DX2                !
 ! D65   D(17,15,16,18)        118.6559         estimate D2E/DX2                !
 ! D66   D(17,15,16,22)        -60.7927         estimate D2E/DX2                !
 ! D67   D(32,15,16,18)          2.2418         estimate D2E/DX2                !
 ! D68   D(32,15,16,22)       -177.2068         estimate D2E/DX2                !
 ! D69   D(10,15,17,38)        -69.9822         estimate D2E/DX2                !
 ! D70   D(16,15,17,38)         56.9419         estimate D2E/DX2                !
 ! D71   D(32,15,17,38)        174.5348         estimate D2E/DX2                !
 ! D72   D(15,16,18,19)       -179.5575         estimate D2E/DX2                !
 ! D73   D(15,16,18,39)          0.6978         estimate D2E/DX2                !
 ! D74   D(22,16,18,19)         -0.0862         estimate D2E/DX2                !
 ! D75   D(22,16,18,39)       -179.8309         estimate D2E/DX2                !
 ! D76   D(15,16,22,21)        179.2472         estimate D2E/DX2                !
 ! D77   D(15,16,22,42)         -1.3979         estimate D2E/DX2                !
 ! D78   D(18,16,22,21)         -0.2084         estimate D2E/DX2                !
 ! D79   D(18,16,22,42)        179.1465         estimate D2E/DX2                !
 ! D80   D(16,18,19,20)          0.3093         estimate D2E/DX2                !
 ! D81   D(16,18,19,40)       -178.8223         estimate D2E/DX2                !
 ! D82   D(39,18,19,20)       -179.9444         estimate D2E/DX2                !
 ! D83   D(39,18,19,40)          0.924          estimate D2E/DX2                !
 ! D84   D(18,19,20,21)         -0.2293         estimate D2E/DX2                !
 ! D85   D(18,19,20,23)        179.8228         estimate D2E/DX2                !
 ! D86   D(40,19,20,21)        178.8994         estimate D2E/DX2                !
 ! D87   D(40,19,20,23)         -1.0485         estimate D2E/DX2                !
 ! D88   D(19,20,21,22)         -0.0656         estimate D2E/DX2                !
 ! D89   D(19,20,21,41)        178.973          estimate D2E/DX2                !
 ! D90   D(23,20,21,22)        179.8823         estimate D2E/DX2                !
 ! D91   D(23,20,21,41)         -1.0791         estimate D2E/DX2                !
 ! D92   D(19,20,23,24)        -45.0242         estimate D2E/DX2                !
 ! D93   D(19,20,23,28)        134.9637         estimate D2E/DX2                !
 ! D94   D(21,20,23,24)        135.0295         estimate D2E/DX2                !
 ! D95   D(21,20,23,28)        -44.9825         estimate D2E/DX2                !
 ! D96   D(20,21,22,16)          0.2876         estimate D2E/DX2                !
 ! D97   D(20,21,22,42)       -179.0767         estimate D2E/DX2                !
 ! D98   D(41,21,22,16)       -178.7545         estimate D2E/DX2                !
 ! D99   D(41,21,22,42)          1.8812         estimate D2E/DX2                !
 ! D100  D(20,23,24,25)        179.9491         estimate D2E/DX2                !
 ! D101  D(20,23,24,43)         -1.3682         estimate D2E/DX2                !
 ! D102  D(28,23,24,25)         -0.0391         estimate D2E/DX2                !
 ! D103  D(28,23,24,43)        178.6435         estimate D2E/DX2                !
 ! D104  D(20,23,28,27)       -179.9592         estimate D2E/DX2                !
 ! D105  D(20,23,28,47)         -1.1318         estimate D2E/DX2                !
 ! D106  D(24,23,28,27)          0.029          estimate D2E/DX2                !
 ! D107  D(24,23,28,47)        178.8564         estimate D2E/DX2                !
 ! D108  D(23,24,25,26)          0.0188         estimate D2E/DX2                !
 ! D109  D(23,24,25,44)        179.5251         estimate D2E/DX2                !
 ! D110  D(43,24,25,26)       -178.6638         estimate D2E/DX2                !
 ! D111  D(43,24,25,44)          0.8425         estimate D2E/DX2                !
 ! D112  D(24,25,26,27)          0.0125         estimate D2E/DX2                !
 ! D113  D(24,25,26,45)        179.9507         estimate D2E/DX2                !
 ! D114  D(44,25,26,27)       -179.4918         estimate D2E/DX2                !
 ! D115  D(44,25,26,45)          0.4464         estimate D2E/DX2                !
 ! D116  D(25,26,27,28)         -0.0225         estimate D2E/DX2                !
 ! D117  D(25,26,27,46)       -179.6355         estimate D2E/DX2                !
 ! D118  D(45,26,27,28)       -179.9607         estimate D2E/DX2                !
 ! D119  D(45,26,27,46)          0.4263         estimate D2E/DX2                !
 ! D120  D(26,27,28,23)          0.0015         estimate D2E/DX2                !
 ! D121  D(26,27,28,47)       -178.8262         estimate D2E/DX2                !
 ! D122  D(46,27,28,23)        179.6161         estimate D2E/DX2                !
 ! D123  D(46,27,28,47)          0.7885         estimate D2E/DX2                !
 ! D124  D(5,29,30,48)         -61.2782         estimate D2E/DX2                !
 ! D125  D(5,29,30,49)          61.2189         estimate D2E/DX2                !
 ! D126  D(5,29,30,50)         179.9745         estimate D2E/DX2                !
 --------------------------------------------------------------------------------
 Trust Radius=3.00D-01 FncErr=1.00D-07 GrdErr=1.00D-06
 Number of steps in this run=    276 maximum allowed number of steps=    300.
 GradGradGradGradGradGradGradGradGradGradGradGradGradGradGradGradGradGrad

 Leave Link  103 at Sat Jul 06 07:09:05 2019, MaxMem=   209715200 cpu:         0.0
 (Enter C:\G09W\l202.exe)
                          Input orientation:                          
 ---------------------------------------------------------------------
 Center     Atomic      Atomic             Coordinates (Angstroms)
 Number     Number       Type             X           Y           Z
 ---------------------------------------------------------------------
      1          6           0        2.810922    1.896207   -1.061752
      2          6           0        3.113073    1.354511    0.171865
      3          6           0        2.963112    2.144202    1.309507
      4          6           0        2.511826    3.439678    1.207509
      5          6           0        2.188050    3.975366   -0.039301
      6          6           0        2.336784    3.197486   -1.176496
      7          7           0        3.609946    0.024166    0.298962
      8          6           0        2.961834   -1.094480   -0.086173
      9          6           0        3.470503   -2.306804   -0.315671
     10          6           0        1.462413   -1.180637   -0.286297
     11          6           0        2.404155   -3.232920   -0.673685
     12          8           0        1.253173   -2.518768   -0.685010
     13         17           0        5.121571   -2.772610   -0.208921
     14          8           0        2.436281   -4.384533   -0.928267
     15          6           0        0.647019   -0.898293    0.989736
     16          6           0       -0.841351   -0.763478    0.708936
     17          8           0        0.946628   -1.849485    1.966053
     18          6           0       -1.472394    0.450570    0.936498
     19          6           0       -2.828074    0.608140    0.700911
     20          6           0       -3.598009   -0.450606    0.234513
     21          6           0       -2.962503   -1.669776    0.007968
     22          6           0       -1.608587   -1.824916    0.237417
     23          6           0       -5.058122   -0.287536   -0.016954
     24          6           0       -5.871745    0.365715    0.905229
     25          6           0       -7.227681    0.518180    0.671356
     26          6           0       -7.795658    0.019733   -0.489308
     27          6           0       -6.996994   -0.632528   -1.413958
     28          6           0       -5.641089   -0.784619   -1.179846
     29          8           0        1.745296    5.243696   -0.032690
     30          6           0        1.399725    5.871609   -1.237585
     31          1           0        1.134736   -0.527696   -1.084575
     32          1           0        0.990158    0.044665    1.389241
     33          1           0        2.949521    1.306501   -1.950865
     34          1           0        3.200686    1.728493    2.272395
     35          1           0        2.394083    4.057410    2.078140
     36          1           0        2.104606    3.583001   -2.149828
     37          1           0        4.591185   -0.077944    0.438303
     38          1           0        0.596975   -2.690683    1.718014
     39          1           0       -0.902613    1.289255    1.298601
     40          1           0       -3.285169    1.566939    0.868745
     41          1           0       -3.536006   -2.511317   -0.337105
     42          1           0       -1.153244   -2.777253    0.036035
     43          1           0       -5.445312    0.737725    1.819829
     44          1           0       -7.840797    1.019219    1.399716
     45          1           0       -8.849303    0.137405   -0.670821
     46          1           0       -7.427317   -1.018229   -2.321412
     47          1           0       -5.027395   -1.276148   -1.913690
     48          1           0        2.250468    5.936042   -1.908364
     49          1           0        0.586030    5.353324   -1.734787
     50          1           0        1.078099    6.868409   -0.975870
 ---------------------------------------------------------------------
                    Distance matrix (angstroms):
                    1          2          3          4          5
     1  C    0.000000
     2  C    1.380775   0.000000
     3  C    2.389044   1.392957   0.000000
     4  C    2.760671   2.404574   1.375616   0.000000
     5  C    2.399224   2.787318   2.402741   1.395108   0.000000
     6  C    1.389712   2.411899   2.771625   2.402660   1.385796
     7  N    2.448371   1.425782   2.436011   3.700952   4.212860
     8  C    3.149403   2.467187   3.526611   4.736529   5.128770
     9  C    4.319373   3.710886   4.765512   6.021727   6.417689
    10  C    3.447720   3.059668   3.981613   4.967900   5.212669
    11  C    5.159845   4.718267   5.758379   6.933545   7.239374
    12  O    4.696863   4.381296   5.352128   6.377218   6.592777
    13  Cl   5.278662   4.605669   5.580288   6.885460   7.359993
    14  O    6.293319   5.882598   6.921674   8.110828   8.410695
    15  C    4.086601   3.438817   3.837097   4.726830   5.214043
    16  C    4.852665   4.517941   4.825891   5.399897   5.673956
    17  O    5.164630   4.263588   4.521813   5.567807   6.284223
    18  C    4.942637   4.735851   4.762482   4.988208   5.174478
    19  C    6.046848   6.011172   6.022268   6.065376   6.086676
    20  C    6.947102   6.949892   7.137013   7.308291   7.289903
    21  C    6.869714   6.788652   7.166125   7.583779   7.641862
    22  C    5.921711   5.692726   6.148472   6.755356   6.937888
    23  C    8.232994   8.336690   8.486050   8.526168   8.407130
    24  C    9.033279   9.068765   9.021150   8.934477   8.881555
    25  C   10.279892  10.386536  10.339412  10.182367  10.055504
    26  C   10.786491  11.009959  11.113066  10.991790  10.748207
    27  C   10.134780  10.424808  10.692577  10.671111  10.367613
    28  C    8.867765   9.112538   9.423754   9.487580   9.233294
    29  O    3.660630   4.127762   3.590464   2.319513   1.343405
    30  C    4.222110   5.032523   4.777596   3.623471   2.377620
    31  H    2.947105   3.005855   4.026615   4.784358   4.741269
    32  H    3.570820   2.775693   2.882180   3.724864   4.350412
    33  H    1.075865   2.129563   3.366297   3.836320   3.369979
    34  H    3.361039   2.135361   1.075364   2.129945   3.379025
    35  H    3.834511   3.384744   2.138915   1.073990   2.129023
    36  H    2.127925   3.372452   3.843719   3.384979   2.148310
    37  H    3.052339   2.075508   2.889213   4.158013   4.736294
    38  H    5.802432   5.008485   5.398296   6.442716   7.075018
    39  H    4.441846   4.171274   3.959152   4.036212   4.307827
    40  H    6.402934   6.439586   6.290351   6.101398   6.048239
    41  H    7.761113   7.708043   8.162336   8.624178   8.656244
    42  H    6.225831   5.940655   6.541165   7.311315   7.534440
    43  H    8.821054   8.737400   8.540504   8.425647   8.497464
    44  H   10.967545  11.027570  10.862696  10.633549  10.554020
    45  H   11.798604  12.053626  12.144220  11.979498  11.702646
    46  H   10.719245  11.088108  11.451880  11.450449  11.072457
    47  H    8.498756   8.805517   9.270167   9.424476   9.118902
    48  H    4.165468   5.105082   5.024003   4.001101   2.709528
    49  H    4.165907   5.100174   5.021624   4.003478   2.709227
    50  H    5.266198   5.988446   5.576231   4.310326   3.237105
                    6          7          8          9         10
     6  C    0.000000
     7  N    3.723960   0.000000
     8  C    4.472188   1.348980   0.000000
     9  C    5.685380   2.414672   1.334595   0.000000
    10  C    4.552465   2.531003   1.515169   2.302507   0.000000
    11  C    6.450386   3.606741   2.286723   1.457039   2.291029
    12  O    5.838778   3.604038   2.303633   2.257851   1.411860
    13  Cl   6.658325   3.219458   2.737819   1.718836   3.991216
    14  O    7.586734   4.724427   3.436536   2.400385   3.409618
    15  C    4.931863   3.179156   2.560164   3.414682   1.540404
    16  C    5.417069   4.538998   3.899484   4.692948   2.543981
    17  O    6.105740   3.658281   2.973671   3.432980   2.405509
    18  C    5.149770   5.139888   4.805769   5.796833   3.573396
    19  C    6.074959   6.476935   6.086169   7.014443   4.752113
    20  C    7.107833   7.223862   6.599163   7.328850   5.139266
    21  C    7.292163   6.793468   5.952949   6.472566   4.461584
    22  C    6.541378   5.536784   4.639719   5.131791   3.181260
    23  C    8.256788   8.679422   8.060747   8.769499   6.586923
    24  C    8.929303   9.507191   9.008172   9.793393   7.589520
    25  C   10.103080  10.855270  10.344116  11.108821   8.906223
    26  C   10.641274  11.432812  10.822552  11.505186   9.337772
    27  C   10.091819  10.764410  10.057568  10.657295   8.551819
    28  C    8.916481   9.403332   8.677697   9.278198   7.170425
    29  O    2.417669   5.552513   6.454092   7.750256   6.435557
    30  C    2.834210   6.437285   7.231344   8.486724   7.116393
    31  H    3.915399   2.888839   2.157855   3.035168   1.082105
    32  H    4.282136   2.837678   2.713301   3.819456   2.128807
    33  H    2.133288   2.672502   3.040056   4.000157   3.341876
    34  H    3.846962   2.639444   3.686336   4.801511   4.246356
    35  H    3.366810   4.572839   5.616811   6.884202   5.822002
    36  H    1.072336   4.574705   5.183854   6.318197   5.155328
    37  H    4.291660   0.996329   1.990780   2.606189   3.395614
    38  H    6.787905   4.296756   3.375724   3.541243   2.654522
    39  H    4.501238   4.791964   4.746972   5.887415   3.769034
    40  H    6.200649   7.088541   6.857118   7.877045   5.605607
    41  H    8.233145   7.609066   6.655247   7.009526   5.172764
    42  H    7.024816   5.532184   4.447530   4.660907   3.081354
    43  H    8.694217   9.209772   8.813054   9.660294   7.472118
    44  H   10.722167  11.546485  11.107314  11.914298   9.707303
    45  H   11.608115  12.497447  11.889588  12.564948  10.402720
    46  H   10.696764  11.391845  10.627162  11.155532   9.121150
    47  H    8.648005   9.010566   8.197597   8.708053   6.691423
    48  H    2.835978   6.455288   7.297579   8.483494   7.341611
    49  H    2.832749   6.456015   7.066580   8.307324   6.749727
    50  H    3.885899   7.408043   8.230894   9.504946   8.087667
                   11         12         13         14         15
    11  C    0.000000
    12  O    1.354585   0.000000
    13  Cl   2.795039   3.905842   0.000000
    14  O    1.179854   2.222611   3.213493   0.000000
    15  C    3.362288   2.407932   4.997145   4.362805   0.000000
    16  C    4.306169   3.067761   6.358892   5.151247   1.520615
    17  O    3.317604   2.751371   4.797168   4.125848   1.395610
    18  C    5.584659   4.344534   7.428408   6.491018   2.512803
    19  C    6.634718   5.324933   8.686433   7.436023   3.798557
    20  C    6.677729   5.353203   9.034346   7.296608   4.334864
    21  C    5.631082   4.355793   8.161834   6.115007   3.819385
    22  C    4.349101   3.085769   6.811194   4.926603   2.551935
    23  C    8.049358   6.727343  10.480391   8.589642   5.825383
    24  C    9.161532   7.849430  11.486662   9.744222   6.640718
    25  C   10.423634   9.109757  12.810473  10.953883   8.007413
    26  C   10.707471   9.400193  13.218570  11.148220   8.620275
    27  C    9.782211   8.494382  12.364938  10.163666   8.017438
    28  C    8.424745   7.126218  10.987705   8.846840   6.652842
    29  O    8.526312   7.805354   8.700083   9.694447   6.322626
    30  C    9.177108   8.409830   9.467461  10.313029   7.166526
    31  H    3.016371   2.034219   4.658461   4.073530   2.162863
    32  H    4.122816   3.308003   5.249737   5.203836   1.080055
    33  H    4.747100   4.371804   4.938757   5.804911   4.337023
    34  H    5.824901   5.529763   5.486953   6.942452   3.881550
    35  H    7.792404   7.223766   7.701884   8.961399   5.366176
    36  H    6.980366   6.332631   7.298150   8.067454   5.662457
    37  H    3.996685   4.285065   2.821601   5.005780   4.066140
    38  H    3.046333   2.496933   4.918512   3.640739   1.935344
    39  H    5.939250   4.804494   7.420388   6.949750   2.698541
    40  H    7.601720   6.301088   9.521887   8.448921   4.642640
    41  H    5.993289   4.801805   8.662468   6.287020   4.675473
    42  H    3.656012   2.525384   6.279596   4.049434   2.771459
    43  H    9.143181   7.858032  11.318008   9.793317   6.362555
    44  H   11.284446   9.978162  13.601054  11.842228   8.711369
    45  H   11.747315  10.445835  14.278195  12.160535   9.695888
    46  H   10.211645   8.959929  12.845819  10.514914   8.727714
    47  H    7.784247   6.519148  10.399382   8.144911   6.385267
    48  H    9.252995   8.600872   9.325876  10.368673   7.594614
    49  H    8.840537   7.969752   9.430281   9.944836   6.819784
    50  H   10.192477   9.393314  10.482706  11.334709   8.023160
                   16         17         18         19         20
    16  C    0.000000
    17  O    2.440619   0.000000
    18  C    1.387052   3.493122   0.000000
    19  C    2.414222   4.678555   1.384990   0.000000
    20  C    2.814628   5.060516   2.413118   1.389701   0.000000
    21  C    2.410813   4.375808   2.752900   2.384773   1.393401
    22  C    1.391988   3.085111   2.384345   2.760749   2.417961
    23  C    4.305182   6.513757   3.783030   2.508123   1.490556
    24  C    5.159309   7.247253   4.400280   3.060139   2.507213
    25  C    6.513775   8.608217   5.761788   4.400626   3.782049
    26  C    7.100112   9.270941   6.496323   5.141958   4.285486
    27  C    6.512739   8.718176   6.100734   4.836509   3.782017
    28  C    5.158045   7.377577   4.835558   3.659246   2.507220
    29  O    6.582317   7.412561   5.853795   6.553035   7.813282
    30  C    7.268820   8.371612   6.508715   7.023970   8.192364
    31  H    2.679029   3.329991   3.440766   4.492432   4.913737
    32  H    2.114317   1.980508   2.536513   3.920484   4.757096
    33  H    5.072481   5.414247   5.350029   6.395329   7.122742
    34  H    4.999239   4.239876   5.025474   6.330142   7.424533
    35  H    5.965209   6.082688   5.409463   6.408209   7.721809
    36  H    5.978551   6.913269   5.668550   6.427118   7.380710
    37  H    5.482303   4.330724   6.106924   7.455540   8.200202
    38  H    2.607899   0.944137   3.841943   4.862889   4.981627
    39  H    2.136626   3.703630   1.076644   2.128039   3.380024
    40  H    3.380625   5.548346   2.130029   1.075360   2.137898
    41  H    3.377915   5.082968   3.827967   3.362983   2.139421
    42  H    2.146011   2.999197   3.366234   3.835101   3.380763
    43  H    4.968315   6.897241   4.080050   2.849334   2.708853
    44  H    7.255855   9.261158   6.410498   5.077864   4.638894
    45  H    8.175733  10.337364   7.556476   6.193419   5.361108
    46  H    7.254161   9.444379   6.944959   5.738689   4.638809
    47  H    4.966283   7.146333   4.872695   3.901755   2.709140
    48  H    7.828996   8.793494   7.214107   7.809382   8.921092
    49  H    6.739767   8.105967   5.950619   6.332890   7.420912
    50  H    8.047892   9.201841   7.165949   7.567083   8.769207
                   21         22         23         24         25
    21  C    0.000000
    22  C    1.381957   0.000000
    23  C    2.510543   3.785173   0.000000
    24  C    3.662238   4.839355   1.392530   0.000000
    25  C    4.839316   6.103492   2.414526   1.384379   0.000000
    26  C    5.144036   6.496977   2.794930   2.401224   1.384987
    27  C    4.401690   5.760535   2.414511   2.764291   2.392881
    28  C    3.060919   4.399082   1.392573   2.392490   2.764328
    29  O    8.364276   7.828586   8.768197   9.093608  10.165653
    30  C    8.800734   8.394169   9.007152   9.369141  10.331282
    31  H    4.391510   3.310025   6.288798   7.338139   8.608552
    32  H    4.524462   3.402280   6.218475   6.886440   8.262715
    33  H    6.902701   5.947327   8.390668   9.319715  10.539114
    34  H    7.393292   6.316404   8.804170   9.275522  10.619747
    35  H    8.110443   7.349244   8.877124   9.128431  10.348117
    36  H    7.610739   6.980853   8.416346   9.127238  10.219774
    37  H    7.731579   6.444334   9.662314  10.482736  11.836185
    38  H    4.078773   2.793962   6.384775   7.200453   8.521592
    39  H    3.829458   3.364903   4.635214   5.069511   6.402693
    40  H    3.364725   3.835907   2.714204   2.852130   4.084392
    41  H    1.075255   2.125127   2.713768   3.908501   4.880913
    42  H    2.121488   1.074634   4.631368   5.735678   6.939906
    43  H    3.904259   4.877665   2.138889   1.075514   2.131673
    44  H    5.741551   6.948416   3.384944   2.132780   1.075853
    45  H    6.195246   7.556690   3.870552   3.376672   2.139179
    46  H    5.077902   6.407493   3.384896   3.840093   3.370025
    47  H    2.848068   4.076353   2.139137   3.369710   3.839705
    48  H    9.417848   8.929118   9.783958  10.242812  11.217999
    49  H    8.059356   7.760996   8.162518   8.576059   9.498538
    50  H    9.497105   9.179556   9.475245   9.701747  10.584174
                   26         27         28         29         30
    26  C    0.000000
    27  C    1.385022   0.000000
    28  C    2.401248   1.384348   0.000000
    29  O   10.887061  10.623820   9.602876   0.000000
    30  C   10.925175  10.622608   9.689260   1.401951   0.000000
    31  H    8.966937   8.139073   6.781363   5.898153   6.406617
    32  H    8.984438   8.491826   7.159704   5.442614   6.404782
    33  H   10.920201  10.147968   8.875012   4.542142   4.873484
    34  H   11.465882  11.097581   9.818894   4.448396   5.720912
    35  H   11.257240  11.062667   9.930947   2.506751   3.908209
    36  H   10.652203  10.057401   8.944985   2.714643   2.562571
    37  H   12.421911  11.748375  10.383507   6.053162   6.956378
    38  H    9.091475   8.468389   7.137515   8.205972   9.093559
    39  H    7.233421   6.942097   5.735574   4.941797   5.721098
    40  H    4.958091   4.881192   3.908569   6.295769   6.701869
    41  H    4.957218   4.082634   2.850100   9.387494   9.769634
    42  H    7.226395   6.391537   5.058627   8.528885   9.107281
    43  H    3.372203   3.839621   3.369556   8.685646   9.086203
    44  H    2.137621   3.370020   3.840142  10.573134  10.765142
    45  H    1.075621   2.139182   3.376666  11.778240  11.757759
    46  H    2.137673   1.075833   2.132688  11.339611  11.249943
    47  H    3.372158   2.131502   1.075522   9.587276   9.636152
    48  H   11.744832  11.353682  10.391087   2.062206   1.085292
    49  H   10.012547   9.666210   8.761239   2.062292   1.085324
    50  H   11.219834  11.030100  10.186164   1.993598   1.079606
                   31         32         33         34         35
    31  H    0.000000
    32  H    2.543278   0.000000
    33  H    2.721797   4.072793   0.000000
    34  H    4.541782   2.915763   4.251716   0.000000
    35  H    5.710685   4.306705   4.910081   2.472286   0.000000
    36  H    4.355828   5.127068   2.436374   4.919009   4.264337
    37  H    3.803745   3.726488   3.212456   2.925850   4.961600
    38  H    3.580811   2.782950   5.913766   5.159047   6.992571
    39  H    3.623759   2.267113   5.039669   4.240079   4.374765
    40  H    5.266737   4.568003   6.847583   6.637970   6.318147
    41  H    5.129259   5.477178   7.696884   8.376664   9.173197
    42  H    3.398695   3.793226   6.120253   6.652801   7.966576
    43  H    7.303005   6.486988   9.220350   8.714340   8.517226
    44  H    9.440595   8.884573  11.302207  11.098603  10.697833
    45  H   10.014718  10.053231  11.925500  12.505851  12.220350
    46  H    8.664822   9.260269  10.640509  11.899664  11.898658
    47  H    6.262545   6.990339   8.384667   9.708372   9.972958
    48  H    6.610854   6.868108   4.682214   6.007090   4.409319
    49  H    5.942243   6.172903   4.691434   6.002777   4.414392
    50  H    7.397121   7.222532   5.948752   6.440135   4.354366
                   36         37         38         39         40
    36  H    0.000000
    37  H    5.126794   0.000000
    38  H    7.522783   4.941435   0.000000
    39  H    5.118232   5.726357   4.273708   0.000000
    40  H    6.498151   8.057783   5.824057   2.436895   0.000000
    41  H    8.499599   8.519025   4.619223   4.904553   4.260184
    42  H    7.472912   6.359760   2.428953   4.265369   4.910246
    43  H    8.991943  10.163917   6.947919   4.605646   2.501674
    44  H   10.866613  12.517278   9.222835   6.944173   4.619056
    45  H   11.577898  13.487893  10.145777   8.267724   5.947556
    46  H   10.585760  12.367075   9.138015   7.810297   5.832460
    47  H    8.633222   9.974199   6.842786   5.823567   4.342861
    48  H    2.369891   6.866865   9.502896   6.466775   7.579226
    49  H    2.369045   7.089588   8.753742   5.285277   6.008433
    50  H    3.636729   7.911604   9.943075   6.342192   7.109592
                   41         42         43         44         45
    41  H    0.000000
    42  H    2.426419   0.000000
    43  H    4.342129   5.827421   0.000000
    44  H    5.832020   7.810006   2.448281   0.000000
    45  H    5.946278   8.259794   4.260385   2.466131   0.000000
    46  H    4.616177   6.929337   4.915445   4.262506   2.466168
    47  H    2.497099   4.589530   4.262570   4.915547   4.260262
    48  H   10.359055   9.554447  10.007345  11.702657  12.584142
    49  H    8.988730   8.501010   8.385472   9.981031  10.833436
    50  H   10.472690   9.951967   9.378492  10.927174  11.998032
                   46         47         48         49         50
    46  H    0.000000
    47  H    2.447935   0.000000
    48  H   11.924429  10.246121   0.000000
    49  H   10.254489   8.688639   1.772017   0.000000
    50  H   11.676971  10.222053   1.764455   1.764531   0.000000
 Stoichiometry    C24H20ClNO4
 Framework group  C1[X(C24H20ClNO4)]
 Deg. of freedom   144
 Full point group                 C1      NOp   1
 Largest Abelian subgroup         C1      NOp   1
 Largest concise Abelian subgroup C1      NOp   1
                         Standard orientation:                         
 ---------------------------------------------------------------------
 Center     Atomic      Atomic             Coordinates (Angstroms)
 Number     Number       Type             X           Y           Z
 ---------------------------------------------------------------------
      1          6           0        2.810922    1.896207   -1.061752
      2          6           0        3.113073    1.354511    0.171865
      3          6           0        2.963112    2.144202    1.309507
      4          6           0        2.511826    3.439678    1.207509
      5          6           0        2.188050    3.975366   -0.039301
      6          6           0        2.336784    3.197486   -1.176496
      7          7           0        3.609946    0.024166    0.298962
      8          6           0        2.961834   -1.094480   -0.086173
      9          6           0        3.470503   -2.306804   -0.315671
     10          6           0        1.462413   -1.180637   -0.286297
     11          6           0        2.404155   -3.232920   -0.673685
     12          8           0        1.253173   -2.518768   -0.685010
     13         17           0        5.121571   -2.772610   -0.208921
     14          8           0        2.436281   -4.384533   -0.928267
     15          6           0        0.647019   -0.898293    0.989736
     16          6           0       -0.841351   -0.763478    0.708936
     17          8           0        0.946628   -1.849485    1.966053
     18          6           0       -1.472394    0.450570    0.936498
     19          6           0       -2.828074    0.608140    0.700911
     20          6           0       -3.598009   -0.450606    0.234513
     21          6           0       -2.962503   -1.669776    0.007968
     22          6           0       -1.608587   -1.824916    0.237417
     23          6           0       -5.058122   -0.287536   -0.016954
     24          6           0       -5.871745    0.365715    0.905229
     25          6           0       -7.227681    0.518180    0.671356
     26          6           0       -7.795658    0.019733   -0.489308
     27          6           0       -6.996994   -0.632528   -1.413958
     28          6           0       -5.641089   -0.784619   -1.179846
     29          8           0        1.745296    5.243696   -0.032690
     30          6           0        1.399725    5.871609   -1.237585
     31          1           0        1.134736   -0.527696   -1.084575
     32          1           0        0.990158    0.044665    1.389241
     33          1           0        2.949521    1.306501   -1.950865
     34          1           0        3.200686    1.728493    2.272395
     35          1           0        2.394083    4.057410    2.078140
     36          1           0        2.104606    3.583001   -2.149828
     37          1           0        4.591185   -0.077944    0.438303
     38          1           0        0.596975   -2.690683    1.718014
     39          1           0       -0.902613    1.289255    1.298601
     40          1           0       -3.285169    1.566939    0.868745
     41          1           0       -3.536006   -2.511317   -0.337105
     42          1           0       -1.153244   -2.777253    0.036035
     43          1           0       -5.445312    0.737725    1.819829
     44          1           0       -7.840797    1.019219    1.399716
     45          1           0       -8.849303    0.137405   -0.670821
     46          1           0       -7.427317   -1.018229   -2.321412
     47          1           0       -5.027395   -1.276148   -1.913690
     48          1           0        2.250468    5.936042   -1.908364
     49          1           0        0.586030    5.353324   -1.734787
     50          1           0        1.078099    6.868409   -0.975870
 ---------------------------------------------------------------------
 Rotational constants (GHZ):      0.1686632      0.0802052      0.0584325
 Leave Link  202 at Sat Jul 06 07:09:05 2019, MaxMem=   209715200 cpu:         0.0
 (Enter C:\G09W\l301.exe)
 Standard basis: 6-311++G(d,p) (5D, 7F)
 Ernie: Thresh=  0.10000D-02 Tol=  0.10000D-05 Strict=F.
 There are   838 symmetry adapted cartesian basis functions of A   symmetry.
 There are   808 symmetry adapted basis functions of A   symmetry.
   808 basis functions,  1277 primitive gaussians,   838 cartesian basis functions
   110 alpha electrons      110 beta electrons
       nuclear repulsion energy      2864.1004956858 Hartrees.
 IExCor=  402 DFT=T Ex+Corr=B3LYP ExCW=0 ScaHFX=  0.200000
 ScaDFX=  0.800000  0.720000  1.000000  0.810000 ScalE2=  1.000000  1.000000
 IRadAn=      0 IRanWt=     -1 IRanGd=            0 ICorTp=0 IEmpDi=  4
 NAtoms=   50 NActive=   50 NUniq=   50 SFac= 1.00D+00 NAtFMM=   60 NAOKFM=F Big=F
 Integral buffers will be    262144 words long.
 Raffenetti 2 integral format.
 Two-electron integral symmetry is turned on.
 Leave Link  301 at Sat Jul 06 07:09:05 2019, MaxMem=   209715200 cpu:         0.0
 (Enter C:\G09W\l302.exe)
 NPDir=0 NMtPBC=     1 NCelOv=     1 NCel=       1 NClECP=     1 NCelD=      1
         NCelK=      1 NCelE2=     1 NClLst=     1 CellRange=     0.0.
 One-electron integrals computed using PRISM.
 NBasis=   808 RedAO= T EigKep=  1.33D-06  NBF=   808
 NBsUse=   801 1.00D-06 EigRej=  9.30D-07 NBFU=   801
 Precomputing XC quadrature grid using
 IXCGrd= 4 IRadAn=           0 IRanWt=          -1 IRanGd=           0 AccXCQ= 0.00D+00.
 Generated NRdTot=       0 NPtTot=           0 NUsed=           0 NTot=          16
 NSgBfM=   809   809   809   809   809 MxSgAt=    50 MxSgA2=    50.
 Leave Link  302 at Sat Jul 06 07:09:10 2019, MaxMem=   209715200 cpu:         5.0
 (Enter C:\G09W\l303.exe)
 DipDrv:  MaxL=1.
 Leave Link  303 at Sat Jul 06 07:09:11 2019, MaxMem=   209715200 cpu:         1.0
 (Enter C:\G09W\l401.exe)
 ExpMin= 3.60D-02 ExpMax= 1.06D+05 ExpMxC= 3.62D+03 IAcc=3 IRadAn=         5 AccDes= 0.00D+00
 Harris functional with IExCor=  402 and IRadAn=       5 diagonalized for initial guess.
 HarFok:  IExCor=  402 AccDes= 0.00D+00 IRadAn=         5 IDoV= 1 UseB2=F ITyADJ=14
 ICtDFT=  3500011 ScaDFX=  1.000000  1.000000  1.000000  1.000000
 FoFCou: FMM=F IPFlag=           0 FMFlag=      100000 FMFlg1=           0
         NFxFlg=           0 DoJE=T BraDBF=F KetDBF=T FulRan=T
         wScrn=  0.000000 ICntrl=     500 IOpCl=  0 I1Cent=   200000004 NGrid=           0
         NMat0=    1 NMatS0=      1 NMatT0=    0 NMatD0=    1 NMtDS0=    0 NMtDT0=    0
 Petite list used in FoFCou.
 Harris En= -1742.79789071476    
 JPrj=0 DoOrth=F DoCkMO=F.
 Leave Link  401 at Sat Jul 06 07:10:13 2019, MaxMem=   209715200 cpu:        62.0
 (Enter C:\G09W\l502.exe)
 Closed shell SCF:
 Using DIIS extrapolation, IDIIS=  1040.
 Integral symmetry usage will be decided dynamically.
 IVT=     2135406 IEndB=     2135406 NGot=   209715200 MDV=   208299517
 LenX=   208299517 LenY=   207596435
 Requested convergence on RMS density matrix=1.00D-08 within 128 cycles.
 Requested convergence on MAX density matrix=1.00D-06.
 Requested convergence on             energy=1.00D-06.
 No special actions if energy rises.
 Fock matrices will be formed incrementally for  20 cycles.

 Cycle   1  Pass 1  IDiag  1:
 FoFJK:  IHMeth= 1 ICntrl=       0 DoSepK=F KAlg= 0 I1Cent=   0 FoldK=F
 IRaf= 720000000 NMat=   1 IRICut=       1 DoRegI=T DoRafI=F ISym2E= 0.
 FoFCou: FMM=F IPFlag=           0 FMFlag=      100000 FMFlg1=           0
         NFxFlg=           0 DoJE=F BraDBF=F KetDBF=F FulRan=T
         wScrn=  0.000000 ICntrl=       0 IOpCl=  0 I1Cent=           0 NGrid=           0
         NMat0=    1 NMatS0=      1 NMatT0=    0 NMatD0=    1 NMtDS0=    0 NMtDT0=    0
 Symmetry not used in FoFCou.
 E= -1742.10879409563    
 DIIS: error= 1.97D-02 at cycle   1 NSaved=   1.
 NSaved= 1 IEnMin= 1 EnMin= -1742.10879409563     IErMin= 1 ErrMin= 1.97D-02
 ErrMax= 1.97D-02  0.00D+00 EMaxC= 1.00D-01 BMatC= 8.28D-01 BMatP= 8.28D-01
 IDIUse=3 WtCom= 8.03D-01 WtEn= 1.97D-01
 Coeff-Com:  0.100D+01
 Coeff-En:   0.100D+01
 Coeff:      0.100D+01
 Gap=     0.332 Goal=   None    Shift=    0.000
 GapD=    0.332 DampG=1.000 DampE=0.500 DampFc=0.5000 IDamp=-1.
 Damping current iteration by 5.00D-01
 RMSDP=2.90D-02 MaxDP=2.62D+00              OVMax= 2.17D-01

 Cycle   2  Pass 1  IDiag  1:
 RMSU=  1.45D-02    CP:  1.01D+00
 E= -1742.38253639728     Delta-E=       -0.273742301648 Rises=F Damp=T
 DIIS: error= 5.25D-03 at cycle   2 NSaved=   2.
 NSaved= 2 IEnMin= 2 EnMin= -1742.38253639728     IErMin= 2 ErrMin= 5.25D-03
 ErrMax= 5.25D-03  0.00D+00 EMaxC= 1.00D-01 BMatC= 7.57D-02 BMatP= 8.28D-01
 IDIUse=3 WtCom= 9.47D-01 WtEn= 5.25D-02
 Coeff-Com:  0.836D-01 0.916D+00
 Coeff-En:   0.179D+00 0.821D+00
 Coeff:      0.886D-01 0.911D+00
 Gap=     0.312 Goal=   None    Shift=    0.000
 RMSDP=1.19D-02 MaxDP=1.88D+00 DE=-2.74D-01 OVMax= 1.66D-01

 Cycle   3  Pass 1  IDiag  1:
 RMSU=  7.55D-03    CP:  9.28D-01  4.21D-01
 E= -1742.72521627240     Delta-E=       -0.342679875122 Rises=F Damp=F
 DIIS: error= 1.08D-02 at cycle   3 NSaved=   3.
 NSaved= 3 IEnMin= 3 EnMin= -1742.72521627240     IErMin= 2 ErrMin= 5.25D-03
 ErrMax= 1.08D-02  0.00D+00 EMaxC= 1.00D-01 BMatC= 9.82D-02 BMatP= 7.57D-02
 IDIUse=2 WtCom= 0.00D+00 WtEn= 1.00D+00
 Coeff-En:   0.000D+00 0.000D+00 0.100D+01
 Coeff:      0.000D+00 0.000D+00 0.100D+01
 Gap=     0.213 Goal=   None    Shift=    0.000
 RMSDP=7.66D-03 MaxDP=5.06D-01 DE=-3.43D-01 OVMax= 2.97D-01

 Cycle   4  Pass 1  IDiag  1:
 RMSU=  6.45D-03    CP:  9.32D-01  6.95D-01  1.14D+00
 E= -1742.35853482284     Delta-E=        0.366681449566 Rises=F Damp=F
 DIIS: error= 1.99D-02 at cycle   4 NSaved=   4.
 NSaved= 4 IEnMin= 3 EnMin= -1742.72521627240     IErMin= 2 ErrMin= 5.25D-03
 ErrMax= 1.99D-02  0.00D+00 EMaxC= 1.00D-01 BMatC= 5.68D-01 BMatP= 7.57D-02
 IDIUse=2 WtCom= 0.00D+00 WtEn= 1.00D+00
 Coeff-En:   0.000D+00 0.000D+00 0.805D+00 0.195D+00
 Coeff:      0.000D+00 0.000D+00 0.805D+00 0.195D+00
 Gap=     0.203 Goal=   None    Shift=    0.000
 RMSDP=4.26D-03 MaxDP=2.82D-01 DE= 3.67D-01 OVMax= 1.34D-01

 Cycle   5  Pass 1  IDiag  1:
 RMSU=  1.33D-03    CP:  9.04D-01  5.79D-01  1.00D+00  5.00D-01
 E= -1742.76306193720     Delta-E=       -0.404527114368 Rises=F Damp=F
 DIIS: error= 6.29D-03 at cycle   5 NSaved=   5.
 NSaved= 5 IEnMin= 5 EnMin= -1742.76306193720     IErMin= 2 ErrMin= 5.25D-03
 ErrMax= 6.29D-03  0.00D+00 EMaxC= 1.00D-01 BMatC= 4.70D-02 BMatP= 7.57D-02
 IDIUse=3 WtCom= 9.37D-01 WtEn= 6.29D-02
 Coeff-Com:  0.845D-02 0.691D-03 0.340D+00-0.626D-01 0.713D+00
 Coeff-En:   0.000D+00 0.000D+00 0.362D+00 0.000D+00 0.638D+00
 Coeff:      0.792D-02 0.647D-03 0.341D+00-0.587D-01 0.709D+00
 Gap=     0.189 Goal=   None    Shift=    0.000
 RMSDP=1.87D-03 MaxDP=1.23D-01 DE=-4.05D-01 OVMax= 4.01D-02

 Cycle   6  Pass 1  IDiag  1:
 RMSU=  8.76D-04    CP:  8.95D-01  5.23D-01  9.72D-01  2.92D-01  7.99D-01
 E= -1742.79658380409     Delta-E=       -0.033521866886 Rises=F Damp=F
 DIIS: error= 6.51D-04 at cycle   6 NSaved=   6.
 NSaved= 6 IEnMin= 6 EnMin= -1742.79658380409     IErMin= 6 ErrMin= 6.51D-04
 ErrMax= 6.51D-04  0.00D+00 EMaxC= 1.00D-01 BMatC= 4.74D-04 BMatP= 4.70D-02
 IDIUse=3 WtCom= 9.93D-01 WtEn= 6.51D-03
 Coeff-Com:  0.475D-02-0.404D-02 0.174D+00-0.561D-01 0.449D+00 0.433D+00
 Coeff-En:   0.000D+00 0.000D+00 0.000D+00 0.000D+00 0.000D+00 0.100D+01
 Coeff:      0.472D-02-0.402D-02 0.173D+00-0.557D-01 0.446D+00 0.436D+00
 Gap=     0.186 Goal=   None    Shift=    0.000
 RMSDP=4.79D-04 MaxDP=3.60D-02 DE=-3.35D-02 OVMax= 6.54D-03

 Cycle   7  Pass 1  IDiag  1:
 RMSU=  1.37D-04    CP:  8.98D-01  5.18D-01  9.85D-01  3.09D-01  8.32D-01
                    CP:  5.43D-01
 E= -1742.79695674018     Delta-E=       -0.000372936088 Rises=F Damp=F
 DIIS: error= 1.76D-04 at cycle   7 NSaved=   7.
 NSaved= 7 IEnMin= 7 EnMin= -1742.79695674018     IErMin= 7 ErrMin= 1.76D-04
 ErrMax= 1.76D-04  0.00D+00 EMaxC= 1.00D-01 BMatC= 3.60D-05 BMatP= 4.74D-04
 IDIUse=3 WtCom= 9.98D-01 WtEn= 1.76D-03
 Coeff-Com:  0.215D-02-0.261D-02 0.698D-01-0.253D-01 0.179D+00 0.214D+00
 Coeff-Com:  0.563D+00
 Coeff-En:   0.000D+00 0.000D+00 0.000D+00 0.000D+00 0.000D+00 0.000D+00
 Coeff-En:   0.100D+01
 Coeff:      0.215D-02-0.260D-02 0.696D-01-0.253D-01 0.179D+00 0.213D+00
 Coeff:      0.564D+00
 Gap=     0.186 Goal=   None    Shift=    0.000
 RMSDP=8.54D-05 MaxDP=1.19D-02 DE=-3.73D-04 OVMax= 2.08D-03

 Cycle   8  Pass 1  IDiag  1:
 RMSU=  5.02D-05    CP:  8.99D-01  5.19D-01  9.87D-01  3.06D-01  8.15D-01
                    CP:  5.55D-01  6.17D-01
 E= -1742.79697770090     Delta-E=       -0.000020960721 Rises=F Damp=F
 DIIS: error= 1.03D-04 at cycle   8 NSaved=   8.
 NSaved= 8 IEnMin= 8 EnMin= -1742.79697770090     IErMin= 8 ErrMin= 1.03D-04
 ErrMax= 1.03D-04  0.00D+00 EMaxC= 1.00D-01 BMatC= 1.10D-05 BMatP= 3.60D-05
 IDIUse=3 WtCom= 9.99D-01 WtEn= 1.03D-03
 Coeff-Com:  0.614D-03-0.129D-02 0.122D-01-0.505D-02 0.245D-01 0.461D-01
 Coeff-Com:  0.405D+00 0.518D+00
 Coeff-En:   0.000D+00 0.000D+00 0.000D+00 0.000D+00 0.000D+00 0.000D+00
 Coeff-En:   0.208D+00 0.792D+00
 Coeff:      0.613D-03-0.129D-02 0.122D-01-0.504D-02 0.245D-01 0.461D-01
 Coeff:      0.405D+00 0.518D+00
 Gap=     0.186 Goal=   None    Shift=    0.000
 RMSDP=5.62D-05 MaxDP=6.98D-03 DE=-2.10D-05 OVMax= 1.07D-03

 Cycle   9  Pass 1  IDiag  1:
 RMSU=  2.58D-05    CP:  8.99D-01  5.17D-01  9.84D-01  3.04D-01  8.29D-01
                    CP:  5.42D-01  7.26D-01  6.48D-01
 E= -1742.79698782133     Delta-E=       -0.000010120431 Rises=F Damp=F
 DIIS: error= 1.55D-05 at cycle   9 NSaved=   9.
 NSaved= 9 IEnMin= 9 EnMin= -1742.79698782133     IErMin= 9 ErrMin= 1.55D-05
 ErrMax= 1.55D-05  0.00D+00 EMaxC= 1.00D-01 BMatC= 2.09D-07 BMatP= 1.10D-05
 IDIUse=1 WtCom= 1.00D+00 WtEn= 0.00D+00
 Coeff-Com:  0.201D-03-0.522D-03 0.221D-02-0.842D-03 0.134D-02 0.101D-01
 Coeff-Com:  0.160D+00 0.250D+00 0.578D+00
 Coeff:      0.201D-03-0.522D-03 0.221D-02-0.842D-03 0.134D-02 0.101D-01
 Coeff:      0.160D+00 0.250D+00 0.578D+00
 Gap=     0.186 Goal=   None    Shift=    0.000
 RMSDP=8.97D-06 MaxDP=8.84D-04 DE=-1.01D-05 OVMax= 1.42D-04

 Cycle  10  Pass 1  IDiag  1:
 RMSU=  5.13D-06    CP:  8.99D-01  5.17D-01  9.85D-01  3.04D-01  8.26D-01
                    CP:  5.44D-01  7.35D-01  6.44D-01  8.06D-01
 E= -1742.79698800124     Delta-E=       -0.000000179904 Rises=F Damp=F
 DIIS: error= 4.67D-06 at cycle  10 NSaved=  10.
 NSaved=10 IEnMin=10 EnMin= -1742.79698800124     IErMin=10 ErrMin= 4.67D-06
 ErrMax= 4.67D-06  0.00D+00 EMaxC= 1.00D-01 BMatC= 2.93D-08 BMatP= 2.09D-07
 IDIUse=1 WtCom= 1.00D+00 WtEn= 0.00D+00
 Coeff-Com:  0.493D-04-0.147D-03 0.852D-04 0.383D-06-0.107D-02 0.154D-02
 Coeff-Com:  0.371D-01 0.701D-01 0.320D+00 0.572D+00
 Coeff:      0.493D-04-0.147D-03 0.852D-04 0.383D-06-0.107D-02 0.154D-02
 Coeff:      0.371D-01 0.701D-01 0.320D+00 0.572D+00
 Gap=     0.186 Goal=   None    Shift=    0.000
 RMSDP=3.59D-06 MaxDP=4.79D-04 DE=-1.80D-07 OVMax= 4.37D-05

 Cycle  11  Pass 1  IDiag  1:
 RMSU=  1.45D-06    CP:  8.99D-01  5.17D-01  9.85D-01  3.04D-01  8.25D-01
                    CP:  5.46D-01  7.39D-01  6.46D-01  7.38D-01  8.30D-01
 E= -1742.79698802636     Delta-E=       -0.000000025125 Rises=F Damp=F
 DIIS: error= 1.48D-06 at cycle  11 NSaved=  11.
 NSaved=11 IEnMin=11 EnMin= -1742.79698802636     IErMin=11 ErrMin= 1.48D-06
 ErrMax= 1.48D-06  0.00D+00 EMaxC= 1.00D-01 BMatC= 3.56D-09 BMatP= 2.93D-08
 IDIUse=1 WtCom= 1.00D+00 WtEn= 0.00D+00
 Coeff-Com:  0.128D-04-0.499D-04-0.124D-03 0.696D-04-0.696D-03 0.267D-03
 Coeff-Com:  0.925D-02 0.208D-01 0.144D+00 0.327D+00 0.500D+00
 Coeff:      0.128D-04-0.499D-04-0.124D-03 0.696D-04-0.696D-03 0.267D-03
 Coeff:      0.925D-02 0.208D-01 0.144D+00 0.327D+00 0.500D+00
 Gap=     0.186 Goal=   None    Shift=    0.000
 RMSDP=1.02D-06 MaxDP=1.35D-04 DE=-2.51D-08 OVMax= 1.32D-05

 Cycle  12  Pass 1  IDiag  1:
 RMSU=  3.61D-07    CP:  8.99D-01  5.17D-01  9.85D-01  3.04D-01  8.25D-01
                    CP:  5.46D-01  7.37D-01  6.47D-01  7.61D-01  8.13D-01
                    CP:  7.14D-01
 E= -1742.79698802968     Delta-E=       -0.000000003323 Rises=F Damp=F
 DIIS: error= 4.43D-07 at cycle  12 NSaved=  12.
 NSaved=12 IEnMin=12 EnMin= -1742.79698802968     IErMin=12 ErrMin= 4.43D-07
 ErrMax= 4.43D-07  0.00D+00 EMaxC= 1.00D-01 BMatC= 2.69D-10 BMatP= 3.56D-09
 IDIUse=1 WtCom= 1.00D+00 WtEn= 0.00D+00
 Coeff-Com:  0.107D-06-0.643D-05-0.101D-03 0.415D-04-0.288D-03-0.174D-04
 Coeff-Com:  0.103D-02 0.299D-02 0.388D-01 0.981D-01 0.242D+00 0.618D+00
 Coeff:      0.107D-06-0.643D-05-0.101D-03 0.415D-04-0.288D-03-0.174D-04
 Coeff:      0.103D-02 0.299D-02 0.388D-01 0.981D-01 0.242D+00 0.618D+00
 Gap=     0.186 Goal=   None    Shift=    0.000
 RMSDP=4.03D-07 MaxDP=3.72D-05 DE=-3.32D-09 OVMax= 3.23D-06

 Cycle  13  Pass 1  IDiag  1:
 RMSU=  1.68D-07    CP:  8.99D-01  5.17D-01  9.85D-01  3.04D-01  8.25D-01
                    CP:  5.46D-01  7.36D-01  6.48D-01  7.72D-01  8.12D-01
                    CP:  7.08D-01  7.36D-01
 E= -1742.79698803000     Delta-E=       -0.000000000320 Rises=F Damp=F
 DIIS: error= 1.89D-07 at cycle  13 NSaved=  13.
 NSaved=13 IEnMin=13 EnMin= -1742.79698803000     IErMin=13 ErrMin= 1.89D-07
 ErrMax= 1.89D-07  0.00D+00 EMaxC= 1.00D-01 BMatC= 3.31D-11 BMatP= 2.69D-10
 IDIUse=1 WtCom= 1.00D+00 WtEn= 0.00D+00
 Coeff-Com: -0.130D-05 0.133D-05-0.436D-04 0.155D-04-0.877D-04-0.118D-04
 Coeff-Com: -0.145D-03-0.154D-03 0.753D-02 0.210D-01 0.779D-01 0.314D+00
 Coeff-Com:  0.580D+00
 Coeff:     -0.130D-05 0.133D-05-0.436D-04 0.155D-04-0.877D-04-0.118D-04
 Coeff:     -0.145D-03-0.154D-03 0.753D-02 0.210D-01 0.779D-01 0.314D+00
 Coeff:      0.580D+00
 Gap=     0.186 Goal=   None    Shift=    0.000
 RMSDP=9.11D-08 MaxDP=1.08D-05 DE=-3.20D-10 OVMax= 1.47D-06

 Cycle  14  Pass 1  IDiag  1:
 RMSU=  5.65D-08    CP:  8.99D-01  5.17D-01  9.85D-01  3.04D-01  8.25D-01
                    CP:  5.46D-01  7.36D-01  6.48D-01  7.71D-01  8.12D-01
                    CP:  7.16D-01  7.67D-01  7.59D-01
 E= -1742.79698803059     Delta-E=       -0.000000000584 Rises=F Damp=F
 DIIS: error= 1.30D-07 at cycle  14 NSaved=  14.
 NSaved=14 IEnMin=14 EnMin= -1742.79698803059     IErMin=14 ErrMin= 1.30D-07
 ErrMax= 1.30D-07  0.00D+00 EMaxC= 1.00D-01 BMatC= 6.34D-12 BMatP= 3.31D-11
 IDIUse=1 WtCom= 1.00D+00 WtEn= 0.00D+00
 Coeff-Com: -0.904D-06 0.188D-05-0.128D-04 0.362D-05-0.119D-04 0.115D-06
 Coeff-Com: -0.232D-03-0.519D-03-0.142D-02-0.240D-02 0.899D-02 0.897D-01
 Coeff-Com:  0.358D+00 0.548D+00
 Coeff:     -0.904D-06 0.188D-05-0.128D-04 0.362D-05-0.119D-04 0.115D-06
 Coeff:     -0.232D-03-0.519D-03-0.142D-02-0.240D-02 0.899D-02 0.897D-01
 Coeff:      0.358D+00 0.548D+00
 Gap=     0.186 Goal=   None    Shift=    0.000
 RMSDP=7.42D-08 MaxDP=9.64D-06 DE=-5.84D-10 OVMax= 7.49D-07

 Cycle  15  Pass 1  IDiag  1:
 RMSU=  2.17D-08    CP:  8.99D-01  5.17D-01  9.85D-01  3.04D-01  8.25D-01
                    CP:  5.46D-01  7.36D-01  6.48D-01  7.70D-01  8.11D-01
                    CP:  7.23D-01  7.61D-01  7.99D-01  5.57D-01
 E= -1742.79698802985     Delta-E=        0.000000000742 Rises=F Damp=F
 DIIS: error= 4.90D-08 at cycle  15 NSaved=  15.
 NSaved=15 IEnMin=14 EnMin= -1742.79698803059     IErMin=15 ErrMin= 4.90D-08
 ErrMax= 4.90D-08  0.00D+00 EMaxC= 1.00D-01 BMatC= 6.40D-13 BMatP= 6.34D-12
 IDIUse=1 WtCom= 1.00D+00 WtEn= 0.00D+00
 Coeff-Com: -0.420D-06 0.918D-06-0.344D-05 0.769D-06 0.128D-05 0.202D-05
 Coeff-Com: -0.122D-03-0.291D-03-0.174D-02-0.380D-02-0.314D-02 0.199D-01
 Coeff-Com:  0.156D+00 0.327D+00 0.506D+00
 Coeff:     -0.420D-06 0.918D-06-0.344D-05 0.769D-06 0.128D-05 0.202D-05
 Coeff:     -0.122D-03-0.291D-03-0.174D-02-0.380D-02-0.314D-02 0.199D-01
 Coeff:      0.156D+00 0.327D+00 0.506D+00
 Gap=     0.186 Goal=   None    Shift=    0.000
 RMSDP=1.66D-08 MaxDP=2.42D-06 DE= 7.42D-10 OVMax= 2.79D-07

 Cycle  16  Pass 1  IDiag  1:
 RMSU=  6.04D-09    CP:  8.99D-01  5.17D-01  9.85D-01  3.04D-01  8.25D-01
                    CP:  5.46D-01  7.36D-01  6.48D-01  7.70D-01  8.12D-01
                    CP:  7.23D-01  7.67D-01  7.96D-01  6.84D-01  7.06D-01
 E= -1742.79698803030     Delta-E=       -0.000000000451 Rises=F Damp=F
 DIIS: error= 1.19D-08 at cycle  16 NSaved=  16.
 NSaved=16 IEnMin=14 EnMin= -1742.79698803059     IErMin=16 ErrMin= 1.19D-08
 ErrMax= 1.19D-08  0.00D+00 EMaxC= 1.00D-01 BMatC= 6.78D-14 BMatP= 6.40D-13
 IDIUse=1 WtCom= 1.00D+00 WtEn= 0.00D+00
 Coeff-Com: -0.122D-06 0.277D-06-0.433D-06 0.270D-07 0.185D-05 0.173D-05
 Coeff-Com: -0.361D-04-0.909D-04-0.770D-03-0.178D-02-0.285D-02-0.479D-03
 Coeff-Com:  0.432D-01 0.114D+00 0.297D+00 0.552D+00
 Coeff:     -0.122D-06 0.277D-06-0.433D-06 0.270D-07 0.185D-05 0.173D-05
 Coeff:     -0.361D-04-0.909D-04-0.770D-03-0.178D-02-0.285D-02-0.479D-03
 Coeff:      0.432D-01 0.114D+00 0.297D+00 0.552D+00
 Gap=     0.186 Goal=   None    Shift=    0.000
 RMSDP=7.89D-09 MaxDP=9.40D-07 DE=-4.51D-10 OVMax= 8.23D-08

 SCF Done:  E(RB3LYP) =  -1742.79698803     A.U. after   16 cycles
            NFock= 16  Conv=0.79D-08     -V/T= 2.0030
 KE= 1.737561235826D+03 PE=-9.810816511575D+03 EE= 3.466357792033D+03
 Leave Link  502 at Sat Jul 06 08:02:05 2019, MaxMem=   209715200 cpu:      3112.0
 (Enter C:\G09W\l601.exe)
 Copying SCF densities to generalized density rwf, IOpCl= 0 IROHF=0.

 **********************************************************************

            Population analysis using the SCF density.

 **********************************************************************

 Orbital symmetries:
[...]
   571. RY*(  17) C  27                  0.00001     1.59557   
   572. RY*(   1) C  28                  0.00547     1.14048   
   573. RY*(   2) C  28                  0.00202     1.09618   
   574. RY*(   3) C  28                  0.00092     0.80174   
   575. RY*(   4) C  28                  0.00080     0.82762   
   576. RY*(   5) C  28                  0.00059     1.51661   
   577. RY*(   6) C  28                  0.00027     1.52178   
   578. RY*(   7) C  28                  0.00015     2.31647   
   579. RY*(   8) C  28                  0.00008     2.81112   
   580. RY*(   9) C  28                  0.00008     1.59109   
   581. RY*(  10) C  28                  0.00006     1.84094   
   582. RY*(  11) C  28                  0.00004     1.54858   
   583. RY*(  12) C  28                  0.00002     1.85294   
   584. RY*(  13) C  28                  0.00000     2.70310   
   585. RY*(  14) C  28                  0.00001     1.93272   
   586. RY*(  15) C  28                  0.00001     1.54053   
   587. RY*(  16) C  28                  0.00000     2.02433   
   588. RY*(  17) C  28                  0.00000    20.95273   
   589. RY*(   1) O  29                  0.00449     0.62477   
   590. RY*(   2) O  29                  0.00362     0.72093   
   591. RY*(   3) O  29                  0.00097     1.23914   
   592. RY*(   4) O  29                  0.00067     0.66041   
   593. RY*(   5) O  29                  0.00028     1.73681   
   594. RY*(   6) O  29                  0.00019     2.53292   
   595. RY*(   7) O  29                  0.00013     1.32903   
   596. RY*(   8) O  29                  0.00006     1.30513   
   597. RY*(   9) O  29                  0.00004     1.11948   
   598. RY*(  10) O  29                  0.00004     2.72824   
   599. RY*(  11) O  29                  0.00001     5.35436   
   600. RY*(  12) O  29                  0.00000     5.02355   
   601. RY*(  13) O  29                  0.00000     4.94288   
   602. RY*(  14) O  29                  0.00001     3.07041   
   603. RY*(  15) O  29                  0.00000     2.99178   
   604. RY*(  16) O  29                  0.00000    49.03824   
   605. RY*(  17) O  29                  0.00000     2.98282   
   606. RY*(   1) C  30                  0.00291     1.33317   
   607. RY*(   2) C  30                  0.00207     1.40095   
   608. RY*(   3) C  30                  0.00151     0.88148   
   609. RY*(   4) C  30                  0.00047     1.29726   
   610. RY*(   5) C  30                  0.00034     0.58051   
   611. RY*(   6) C  30                  0.00013     2.02736   
   612. RY*(   7) C  30                  0.00001     0.77750   
   613. RY*(   8) C  30                  0.00001     3.56694   
   614. RY*(   9) C  30                  0.00001     2.69040   
   615. RY*(  10) C  30                  0.00001     1.71936   
   616. RY*(  11) C  30                  0.00000    21.04735   
   617. RY*(  12) C  30                  0.00000     2.07420   
   618. RY*(  13) C  30                  0.00001     1.32925   
   619. RY*(  14) C  30                  0.00000     1.44333   
   620. RY*(  15) C  30                  0.00001     1.89911   
   621. RY*(  16) C  30                  0.00001     1.84251   
   622. RY*(  17) C  30                  0.00000     2.75628   
   623. RY*(   1) H  31                  0.00135     0.94861   
   624. RY*(   2) H  31                  0.00027     1.74102   
   625. RY*(   3) H  31                  0.00019     1.97686   
   626. RY*(   4) H  31                  0.00011     1.72393   
   627. RY*(   5) H  31                  0.00011     1.40281   
   628. RY*(   6) H  31                  0.00008     2.26112   
   629. RY*(   1) H  32                  0.00235     0.58086   
   630. RY*(   2) H  32                  0.00024     2.03369   
   631. RY*(   3) H  32                  0.00019     0.64365   
   632. RY*(   4) H  32                  0.00020     2.23363   
   633. RY*(   5) H  32                  0.00013     2.45731   
   634. RY*(   6) H  32                  0.00010     2.07767   
   635. RY*(   1) H  33                  0.00113     0.52428   
   636. RY*(   2) H  33                  0.00038     1.75291   
   637. RY*(   3) H  33                  0.00025     1.81527   
   638. RY*(   4) H  33                  0.00011     1.92199   
   639. RY*(   5) H  33                  0.00007     0.83248   
   640. RY*(   6) H  33                  0.00004     2.61081   
   641. RY*(   1) H  34                  0.00079     1.00338   
   642. RY*(   2) H  34                  0.00021     1.78176   
   643. RY*(   3) H  34                  0.00017     1.83832   
   644. RY*(   4) H  34                  0.00012     1.99017   
   645. RY*(   5) H  34                  0.00005     0.25995   
   646. RY*(   6) H  34                  0.00004     2.46387   
   647. RY*(   1) H  35                  0.00087     0.94305   
   648. RY*(   2) H  35                  0.00021     2.02955   
   649. RY*(   3) H  35                  0.00016     1.59164   
   650. RY*(   4) H  35                  0.00013     1.86830   
   651. RY*(   5) H  35                  0.00003     0.45958   
   652. RY*(   6) H  35                  0.00003     2.39007   
   653. RY*(   1) H  36                  0.00084     0.70163   
   654. RY*(   2) H  36                  0.00024     1.49707   
   655. RY*(   3) H  36                  0.00019     2.24750   
   656. RY*(   4) H  36                  0.00010     0.74481   
   657. RY*(   5) H  36                  0.00010     2.14754   
   658. RY*(   6) H  36                  0.00004     2.26474   
   659. RY*(   1) H  37                  0.00144     0.81562   
   660. RY*(   2) H  37                  0.00070     1.66278   
   661. RY*(   3) H  37                  0.00039     1.67536   
   662. RY*(   4) H  37                  0.00020     2.15133   
   663. RY*(   5) H  37                  0.00012     1.16180   
   664. RY*(   6) H  37                  0.00006     2.58170   
   665. RY*(   1) H  38                  0.00177     2.07714   
   666. RY*(   2) H  38                  0.00127     1.96698   
   667. RY*(   3) H  38                  0.00070     1.67914   
   668. RY*(   4) H  38                  0.00025     1.31441   
   669. RY*(   5) H  38                  0.00012     0.42713   
   670. RY*(   6) H  38                  0.00001     2.46848   
   671. RY*(   1) H  39                  0.00081     1.12239   
   672. RY*(   2) H  39                  0.00023     1.84962   
   673. RY*(   3) H  39                  0.00019     1.67696   
   674. RY*(   4) H  39                  0.00013     2.01239   
   675. RY*(   5) H  39                  0.00004     2.45943   
   676. RY*(   1) H  40                  0.00151     0.46154   
   677. RY*(   2) H  40                  0.00031     2.36906   
   678. RY*(   3) H  40                  0.00019     1.66150   
   679. RY*(   4) H  40                  0.00013     1.71770   
   680. RY*(   5) H  40                  0.00007     0.79935   
   681. RY*(   6) H  40                  0.00004     2.39965   
   682. RY*(   1) H  41                  0.00188     0.58106   
   683. RY*(   2) H  41                  0.00033     2.33294   
   684. RY*(   3) H  41                  0.00018     1.64222   
   685. RY*(   4) H  41                  0.00012     2.02840   
   686. RY*(   5) H  41                  0.00004     2.62303   
   687. RY*(   6) H  41                  0.00004     0.34324   
   688. RY*(   1) H  42                  0.00099     1.36948   
   689. RY*(   2) H  42                  0.00023     1.58023   
   690. RY*(   3) H  42                  0.00019     1.44794   
   691. RY*(   4) H  42                  0.00014     1.88166   
   692. RY*(   5) H  42                  0.00005     2.53355   
   693. RY*(   6) H  42                  0.00006     0.75625   
   694. RY*(   1) H  43                  0.00136     0.46764   
   695. RY*(   2) H  43                  0.00031     2.40222   
   696. RY*(   3) H  43                  0.00019     1.63274   
   697. RY*(   4) H  43                  0.00013     1.99393   
   698. RY*(   5) H  43                  0.00005     0.27377   
   699. RY*(   6) H  43                  0.00004     2.63779   
   700. RY*(   1) H  44                  0.00084     0.65424   
   701. RY*(   2) H  44                  0.00020     2.32716   
   702. RY*(   3) H  44                  0.00019     1.60245   
   703. RY*(   4) H  44                  0.00011     1.96719   
   704. RY*(   5) H  44                  0.00004     2.45699   
   705. RY*(   6) H  44                  0.00002     0.21924   
   706. RY*(   1) H  45                  0.00076     0.67363   
   707. RY*(   2) H  45                  0.00020     1.59251   
   708. RY*(   3) H  45                  0.00019     2.34931   
   709. RY*(   4) H  45                  0.00012     1.96935   
   710. RY*(   5) H  45                  0.00003     2.46173   
   711. RY*(   6) H  45                  0.00001     0.17828   
   712. RY*(   1) H  46                  0.00084     0.65380   
   713. RY*(   2) H  46                  0.00020     2.32908   
   714. RY*(   3) H  46                  0.00019     1.59793   
   715. RY*(   4) H  46                  0.00011     1.96603   
   716. RY*(   5) H  46                  0.00004     2.47809   
   717. RY*(   6) H  46                  0.00002     0.19860   
   718. RY*(   1) H  47                  0.00139     0.46525   
   719. RY*(   2) H  47                  0.00033     2.36109   
   720. RY*(   3) H  47                  0.00019     1.65439   
   721. RY*(   4) H  47                  0.00013     1.99656   
   722. RY*(   5) H  47                  0.00006     0.82064   
   723. RY*(   6) H  47                  0.00004     2.11195   
   724. RY*(   1) H  48                  0.00145     0.44441   
   725. RY*(   2) H  48                  0.00027     1.81939   
   726. RY*(   3) H  48                  0.00015     1.71532   
   727. RY*(   4) H  48                  0.00013     2.05565   
   728. RY*(   5) H  48                  0.00003     0.91838   
   729. RY*(   6) H  48                  0.00002     2.21686   
   730. RY*(   1) H  49                  0.00148     0.44076   
   731. RY*(   2) H  49                  0.00027     1.82046   
   732. RY*(   3) H  49                  0.00015     1.67583   
   733. RY*(   4) H  49                  0.00013     1.96249   
   734. RY*(   5) H  49                  0.00004     0.97277   
   735. RY*(   6) H  49                  0.00002     2.32386   
   736. RY*(   1) H  50                  0.00057     0.45802   
   737. RY*(   2) H  50                  0.00017     0.19424   
   738. RY*(   3) H  50                  0.00013     0.82081   
   739. RY*(   4) H  50                  0.00010     2.21936   
   740. RY*(   5) H  50                  0.00004     0.22805   
   741. RY*(   6) H  50                  0.00001     0.70373   
   742. BD*(   1) C   1 - C   2          0.02727     0.55185   
   743. BD*(   2) C   1 - C   2          0.38667     0.00193  754(v),749(v),113(g),760(r)
                                                    758(v),757(v),198(v),147(v)
   744. BD*(   1) C   1 - C   6          0.01305     0.55496   
   745. BD*(   1) C   1 - H  33          0.01305     0.41451   
   746. BD*(   1) C   2 - C   3          0.02568     0.54093   
   747. BD*(   1) C   2 - N   7          0.02989     0.37942   
   748. BD*(   1) C   3 - C   4          0.01180     0.56946   
   749. BD*(   2) C   3 - C   4          0.31065     0.00898  754(v),743(v),164(g),149(g)
                                                    148(g),165(g)
   750. BD*(   1) C   3 - H  34          0.01244     0.41912   
   751. BD*(   1) C   4 - C   5          0.02275     0.53610   
   752. BD*(   1) C   4 - H  35          0.01222     0.42184   
   753. BD*(   1) C   5 - C   6          0.02895     0.53861   
   754. BD*(   2) C   5 - C   6          0.38526     0.00180  743(v),749(v),198(g),164(v)
                                                    184(g),181(g)
   755. BD*(   1) C   5 - O  29          0.02978     0.34547   
   756. BD*(   1) C   6 - H  36          0.01337     0.41916   
   757. BD*(   1) N   7 - C   8          0.02731     0.46484   
   758. BD*(   1) N   7 - H  37          0.02324     0.36954   
   759. BD*(   1) C   8 - C   9          0.02696     0.59366   
   760. BD*(   2) C   8 - C   9          0.31155     0.00302  769(v),743(r),249(g),765(v)
                                                    766(v),233(g),315(v),213(v)
   761. BD*(   1) C   8 - C  10          0.03568     0.36311   
   762. BD*(   1) C   9 - C  11          0.07881     0.44347   
   763. BD*(   1) C   9 -Cl  13          0.02821     0.14867   
   764. BD*(   1) C  10 - O  12          0.02802     0.24964   
   765. BD*(   1) C  10 - C  15          0.05242     0.32532   
   766. BD*(   1) C  10 - H  31          0.02699     0.37754   
   767. BD*(   1) C  11 - O  12          0.12304     0.30793  764(g),761(v),282(g),765(v)
                                                    763(v),759(v),290(g),310(g)
   768. BD*(   1) C  11 - O  14          0.01285     0.63679   
   769. BD*(   2) C  11 - O  14          0.28963     0.01502  760(v),283(g),337(g),350(g)
   770. BD*(   1) C  15 - C  16          0.03643     0.39876   
   771. BD*(   1) C  15 - O  17          0.03151     0.27422   
   772. BD*(   1) C  15 - H  32          0.02377     0.38084   
   773. BD*(   1) C  16 - C  18          0.02252     0.56842   
   774. BD*(   2) C  16 - C  18          0.35783     0.02745  785(v),780(v),771(v),406(g)
                                                    765(v),473(v),372(g)
   775. BD*(   1) C  16 - C  22          0.02578     0.56701   
   776. BD*(   1) O  17 - H  38          0.00970     0.42356   
   777. BD*(   1) C  18 - C  19          0.01409     0.57693   
   778. BD*(   1) C  18 - H  39          0.01459     0.42971   
   779. BD*(   1) C  19 - C  20          0.02452     0.56113   
   780. BD*(   2) C  19 - C  20          0.35672     0.02898  774(v),785(v),790(v),423(g)
                                                    788(v),457(v)
   781. BD*(   1) C  19 - H  40          0.01398     0.43516   
   782. BD*(   1) C  20 - C  21          0.02499     0.54333   
   783. BD*(   1) C  20 - C  23          0.03163     0.45357   
   784. BD*(   1) C  21 - C  22          0.01542     0.56641   
   785. BD*(   2) C  21 - C  22          0.30951     0.02735  774(v),780(v),457(g),792(r)
                                                    473(g),474(g)
   786. BD*(   1) C  21 - H  41          0.01414     0.43961   
   787. BD*(   1) C  22 - H  42          0.01503     0.45308   
   788. BD*(   1) C  23 - C  24          0.02507     0.55360   
   789. BD*(   1) C  23 - C  28          0.02502     0.56330   
   790. BD*(   2) C  23 - C  28          0.36161     0.05303  797(v),792(v),780(v),807(r)
                                                    574(g),803(r),805(r),804(r)
                                                    611(r),808(r),741(r),806(r)
                                                    665(r),782(v),614(r),617(r)
   791. BD*(   1) C  24 - C  25          0.01513     0.59367   
   792. BD*(   2) C  24 - C  25          0.32385     0.02711  797(v),790(v),807(r),523(g)
                                                    507(g),808(r),785(r),806(r)
   793. BD*(   1) C  24 - H  43          0.01404     0.44032   
   794. BD*(   1) C  25 - C  26          0.01635     0.57541   
   795. BD*(   1) C  25 - H  44          0.01358     0.44118   
   796. BD*(   1) C  26 - C  27          0.01634     0.59543   
   797. BD*(   2) C  26 - C  27          0.33582     0.04811  790(v),792(v),807(r),540(g)
                                                    557(g),803(r),804(r),551(g)
                                                    568(g),808(r),806(r)
   798. BD*(   1) C  26 - H  45          0.01364     0.45106   
   799. BD*(   1) C  27 - C  28          0.01512     0.57792   
   800. BD*(   1) C  27 - H  46          0.01357     0.46205   
   801. BD*(   1) C  28 - H  47          0.01405     0.45874   
   802. BD*(   1) O  29 - C  30          0.00912     0.26282   
   803. BD*(   1) C  30 - H  48          0.01827     2.27946   
   804. BD*(   1) C  30 - H  49          0.01823     4.47400   
   805. BD*(   1) C  30 - H  50          0.00876     2.08457   
       -------------------------------
              Total Lewis  214.56175  ( 97.5281%)
        Valence non-Lewis    4.98724  (  2.2669%)
        Rydberg non-Lewis    0.45100  (  0.2050%)
       -------------------------------
            Total unit  1  220.00000  (100.0000%)
           Charge unit  1    0.00000
 Leave Link  607 at Sat Jul 06 20:33:58 2019, MaxMem=   209715200 cpu:        39.0
 (Enter C:\G09W\l9999.exe)
 1|1|UNPC-CCSC-01038015|FOpt|RB3LYP|6-311++G(d,p)|C24H20Cl1N1O4|PERFIL|
 06-Jul-2019|0||#p opt b3lyp/6-311++g(d,p) pop=nbo geom=connectivity||9
 o.log||0,1|C,2.6327302905,1.8170826484,-1.0290237407|C,3.1611473014,1.
 3475187665,0.1711712071|C,3.2631497132,2.225405401,1.2584553155|C,2.83
 8595761,3.5390299983,1.1444703917|C,2.2807203539,4.0008982088,-0.05568
 53182|C,2.1773299675,3.1312127895,-1.144431811|N,3.6363961981,0.010356
 5534,0.3041649833|C,2.9901389323,-1.1258637048,-0.0534755961|C,3.51701
 47025,-2.3668466205,-0.1735011153|C,1.4979809231,-1.234390641,-0.29673
 69365|C,2.4843369468,-3.3328121123,-0.5125268362|O,1.2908130334,-2.620
 1588862,-0.6162849548|Cl,5.176999792,-2.79464239,0.0583332115|O,2.5289
 918602,-4.5156255393,-0.6979876303|C,0.6391540218,-0.8467769835,0.9365
 352222|C,-0.843837508,-0.7152543923,0.6290740709|O,0.9028996407,-1.728
 543341,2.0219258608|C,-1.5290592247,0.4214295267,1.0682919045|C,-2.895
 2073833,0.5678330522,0.8503481813|C,-3.6284702267,-0.423592805,0.18440
 66744|C,-2.9377672854,-1.5625515066,-0.2547323425|C,-1.5710412675,-1.7
 086637935,-0.0392220327|C,-5.0873668647,-0.273073091,-0.0483669986|C,-
 5.9219209237,0.2722751466,0.9387023994|C,-7.2899078354,0.4134776833,0.
 7211613684|C,-7.8536888957,0.0120388574,-0.488850976|C,-7.0369800676,-
 0.5324493989,-1.4786516104|C,-5.6690674462,-0.6736312763,-1.260524463|
 O,1.8773337232,5.3005096886,-0.0613795497|C,1.3023389366,5.832332669,-
 1.2499900158|H,1.1785788188,-0.6433301763,-1.1576313631|H,0.9944825386
 ,0.127482884,1.2765054543|H,2.5911433469,1.1645017939,-1.8930874526|H,
 3.6692868466,1.8666049065,2.1976067993|H,2.9153892441,4.2245909887,1.9
 794690061|H,1.7672801466,3.462994088,-2.0884504521|H,4.5981166742,-0.1
 092483059,0.5944107221|H,0.5575148361,-2.6010153676,1.7967410749|H,-0.
 9864085876,1.206452723,1.5852505648|H,-3.3937444681,1.4713131114,1.182
 8053505|H,-3.4810743827,-2.3567807302,-0.7539876414|H,-1.0709624853,-2
 .6019897364,-0.3930789243|H,-5.4995027974,0.5638246531,1.8936795896|H,
 -7.9176734612,0.8284085961,1.5019743801|H,-8.9189005209,0.1209414437,-
 0.6582286926|H,-7.4643080451,-0.8416991585,-2.4261110627|H,-5.04110259
 22,-1.078222477,-2.0462644872|H,2.0141192481,5.8082412445,-2.081839034
 3|H,0.3923598109,5.2906961248,-1.5288519933|H,1.0511436602,6.866096886
 7,-1.0203327013||Version=IA32W-G09RevD.01|State=1-A|HF=-1742.8043501|R
 MSD=4.394e-009|RMSF=3.223e-006|Dipole=-0.6191032,3.1696608,-0.4930305|
 Quadrupole=7.1791963,-10.558808,3.3796117,12.7270945,2.6029981,-4.9783
 546|PG=C01 [X(C24H20Cl1N1O4)]||@


 SCIENCE IS LONG AND LIFE IS SHORT.

                     DON MOSER IN THE FEBRUARY 1979 SMITHSONIAN
 Job cpu time:       0 days 13 hours 24 minutes 55.0 seconds.
 File lengths (MBytes):  RWF=    383 Int=      0 D2E=      0 Chk=     43 Scr=      1
 Normal termination of Gaussian 09 at Sat Jul 06 20:33:59 2019.
