 Entering Link 1 = C:\G09W\l1.exe PID=     49488.
  
 Copyright (c) 1988,1990,1992,1993,1995,1998,2003,2009,2013,
            Gaussian, Inc.  All Rights Reserved.
  
 This is part of the Gaussian(R) 09 program.  It is based on
 the Gaussian(R) 03 system (copyright 2003, Gaussian, Inc.),
 the Gaussian(R) 98 system (copyright 1998, Gaussian, Inc.),
 the Gaussian(R) 94 system (copyright 1995, Gaussian, Inc.),
 the Gaussian 92(TM) system (copyright 1992, Gaussian, Inc.),
 the Gaussian 90(TM) system (copyright 1990, Gaussian, Inc.),
 the Gaussian 88(TM) system (copyright 1988, Gaussian, Inc.),
 the Gaussian 86(TM) system (copyright 1986, Carnegie Mellon
 University), and the Gaussian 82(TM) system (copyright 1983,
 Carnegie Mellon University). Gaussian is a federally registered
 trademark of Gaussian, Inc.
  
 This software contains proprietary and confidential information,
 including trade secrets, belonging to Gaussian, Inc.
  
 This software is provided under written license and may be
 used, copied, transmitted, or stored only in accord with that
 written license.
  
 The following legend is applicable only to US Government
 contracts under FAR:
  
                    RESTRICTED RIGHTS LEGEND
  
 Use, reproduction and disclosure by the US Government is
 subject to restrictions as set forth in subparagraphs (a)
 and (c) of the Commercial Computer Software - Restricted
 Rights clause in FAR 52.227-19.
  
 Gaussian, Inc.
 340 Quinnipiac St., Bldg. 40, Wallingford CT 06492
  
  
 ---------------------------------------------------------------
 Warning -- This program may not be used in any manner that
 competes with the business of Gaussian, Inc. or will provide
 assistance to any competitor of Gaussian, Inc.  The licensee
 of this program is prohibited from giving any competitor of
 Gaussian, Inc. access to this program.  By using this program,
 the user acknowledges that Gaussian, Inc. is engaged in the
 business of creating and licensing software in the field of
 computational chemistry and represents and warrants to the
 licensee that it is not a competitor of Gaussian, Inc. and that
 it will not use this program in any manner prohibited above.
 ---------------------------------------------------------------
  

 Cite this work as:
 Gaussian 09, Revision D.01,
 M. J. Frisch, G. W. Trucks, H. B. Schlegel, G. E. Scuseria, 
 M. A. Robb, J. R. Cheeseman, G. Scalmani, V. Barone, B. Mennucci, 
 G. A. Petersson, H. Nakatsuji, M. Caricato, X. Li, H. P. Hratchian, 
 A. F. Izmaylov, J. Bloino, G. Zheng, J. L. Sonnenberg, M. Hada, 
 M. Ehara, K. Toyota, R. Fukuda, J. Hasegawa, M. Ishida, T. Nakajima, 
 Y. Honda, O. Kitao, H. Nakai, T. Vreven, J. A. Montgomery, Jr., 
 J. E. Peralta, F. Ogliaro, M. Bearpark, J. J. Heyd, E. Brothers, 
 K. N. Kudin, V. N. Staroverov, T. Keith, R. Kobayashi, J. Normand, 
 K. Raghavachari, A. Rendell, J. C. Burant, S. S. Iyengar, J. Tomasi, 
 M. Cossi, N. Rega, J. M. Millam, M. Klene, J. E. Knox, J. B. Cross, 
 V. Bakken, C. Adamo, J. Jaramillo, R. Gomperts, R. E. Stratmann, 
 O. Yazyev, A. J. Austin, R. Cammi, C. Pomelli, J. W. Ochterski, 
 R. L. Martin, K. Morokuma, V. G. Zakrzewski, G. A. Voth, 
 P. Salvador, J. J. Dannenberg, S. Dapprich, A. D. Daniels, 
 O. Farkas, J. B. Foresman, J. V. Ortiz, J. Cioslowski, 
 and D. J. Fox, Gaussian, Inc., Wallingford CT, 2013.
 
 ******************************************
 Gaussian 09:  IA32W-G09RevD.01 24-Apr-2013
                06-Jul-2019 
 ******************************************
 %nprocshared=4
 Will use up to    4 processors via shared memory.
 %mem=1600MB
 ----------------------------------------------------
 #p opt b3lyp/6-311++g(d,p) pop=nbo geom=connectivity
 ----------------------------------------------------
 1/14=-1,18=20,19=15,26=3,38=1,57=2/1,3;
 2/9=110,12=2,17=6,18=5,40=1/2;
 3/5=4,6=6,7=1111,11=2,16=1,25=1,30=1,71=1,74=-5/1,2,3;
 4//1;
 5/5=2,38=5/2;
 6/7=2,8=2,9=2,10=2,28=1,40=1/1,7;
 7//1,2,3,16;
 1/14=-1,18=20,19=15,26=3/3(2);
 2/9=110/2;
 99//99;
 2/9=110/2;
 3/5=4,6=6,7=1111,11=2,16=1,25=1,30=1,71=1,74=-5/1,2,3;
 4/5=5,16=3,69=1/1;
 5/5=2,38=5/2;
 7//1,2,3,16;
 1/14=-1,18=20,19=15,26=3/3(-5);
 2/9=110/2;
 6/7=2,8=2,9=2,10=2,19=2,28=1,40=1/1,7;
 99/9=1/99;
 Leave Link    1 at Sat Jul 06 20:33:59 2019, MaxMem=   209715200 cpu:         0.0
 (Enter C:\G09W\l101.exe)
 ------
 9p.log
 ------
 Symbolic Z-matrix:
 Charge =  0 Multiplicity = 1
 C                     2.80643   2.12877  -1.27852 
 C                     3.11539   1.68366  -0.00481 
 C                     2.93532   2.54398   1.07285 
 C                     2.44738   3.81984   0.88333 
 C                     2.12039   4.25106  -0.39716 
 C                     2.29834   3.40266  -1.47787 
 N                     3.65079   0.38083   0.21616 
 C                     3.0357   -0.78041  -0.09146 
 C                     3.58068  -1.98887  -0.24311 
 C                     1.539    -0.92496  -0.27775 
 C                     2.54189  -2.96867  -0.5343 
 O                     1.36984  -2.29191  -0.58744 
 Cl                    5.24541  -2.39635  -0.11437 
 O                     2.60879  -4.13294  -0.71268 
 C                     0.71934  -0.58481   0.98136 
 C                    -0.77356  -0.51635   0.70075 
 O                     1.05319  -1.459     2.01672 
 C                    -1.44272   0.68917   0.85204 
 C                    -2.80359   0.78756   0.61432 
 C                    -3.54061  -0.32361   0.22263 
 C                    -2.86686  -1.53407   0.07281 
 C                    -1.50781  -1.63045   0.3041 
 C                    -5.00611  -0.22422  -0.03065 
 C                    -5.83699   0.46215   0.85119 
 C                    -7.19797   0.55545   0.61557 
 C                    -7.75375  -0.0364   -0.50649 
 C                    -6.93784  -0.72241  -1.39077 
 C                    -5.5769   -0.81534  -1.15493 
 O                     1.63736   5.50106  -0.52453 
 H                     1.18868  -0.33575  -1.11519 
 H                     1.03349   0.39308   1.31546 
 H                     2.96747   1.48291  -2.12359 
 H                     3.17867   2.20137   2.06266 
 H                     2.30734   4.49061   1.71026 
 H                     2.05542   3.73309  -2.47334 
 H                     4.63553   0.31756   0.3541 
 H                     0.72448  -2.32418   1.83023 
 H                    -0.89923   1.56766   1.15543 
 H                    -3.29073   1.74021   0.72157 
 H                    -3.41411  -2.41436  -0.21311 
 H                    -1.02274  -2.57891   0.16279 
 H                    -5.4195    0.90721   1.73683 
 H                    -7.82428   1.08368   1.31282 
 H                    -8.81128   0.03537  -0.68933 
 H                    -7.35878  -1.18065  -2.26839 
 H                    -4.95035  -1.33434  -1.85837 
 H                     1.44823   5.70747  -1.42503 
 
 NAtoms=     47 NQM=       47 NQMF=       0 NMMI=      0 NMMIF=      0
                NMic=       0 NMicF=      0.
                    Isotopes and Nuclear Properties:
 (Nuclear quadrupole moments (NQMom) in fm**2, nuclear magnetic moments (NMagM)
  in nuclear magnetons)

  Atom         1           2           3           4           5           6           7           8           9          10
 IAtWgt=          12          12          12          12          12          12          14          12          12          12
 AtmWgt=  12.0000000  12.0000000  12.0000000  12.0000000  12.0000000  12.0000000  14.0030740  12.0000000  12.0000000  12.0000000
 NucSpn=           0           0           0           0           0           0           2           0           0           0
 AtZEff=   0.0000000   0.0000000   0.0000000   0.0000000   0.0000000   0.0000000   0.0000000   0.0000000   0.0000000   0.0000000
 NQMom=    0.0000000   0.0000000   0.0000000   0.0000000   0.0000000   0.0000000   2.0440000   0.0000000   0.0000000   0.0000000
 NMagM=    0.0000000   0.0000000   0.0000000   0.0000000   0.0000000   0.0000000   0.4037610   0.0000000   0.0000000   0.0000000
 AtZNuc=   6.0000000   6.0000000   6.0000000   6.0000000   6.0000000   6.0000000   7.0000000   6.0000000   6.0000000   6.0000000

  Atom        11          12          13          14          15          16          17          18          19          20
 IAtWgt=          12          16          35          16          12          12          16          12          12          12
 AtmWgt=  12.0000000  15.9949146  34.9688527  15.9949146  12.0000000  12.0000000  15.9949146  12.0000000  12.0000000  12.0000000
 NucSpn=           0           0           3           0           0           0           0           0           0           0
 AtZEff=   0.0000000   0.0000000   0.0000000   0.0000000   0.0000000   0.0000000   0.0000000   0.0000000   0.0000000   0.0000000
 NQMom=    0.0000000   0.0000000  -8.1650000   0.0000000   0.0000000   0.0000000   0.0000000   0.0000000   0.0000000   0.0000000
 NMagM=    0.0000000   0.0000000   0.8218740   0.0000000   0.0000000   0.0000000   0.0000000   0.0000000   0.0000000   0.0000000
 AtZNuc=   6.0000000   8.0000000  17.0000000   8.0000000   6.0000000   6.0000000   8.0000000   6.0000000   6.0000000   6.0000000

  Atom        21          22          23          24          25          26          27          28          29          30
 IAtWgt=          12          12          12          12          12          12          12          12          16           1
 AtmWgt=  12.0000000  12.0000000  12.0000000  12.0000000  12.0000000  12.0000000  12.0000000  12.0000000  15.9949146   1.0078250
 NucSpn=           0           0           0           0           0           0           0           0           0           1
 AtZEff=   0.0000000   0.0000000   0.0000000   0.0000000   0.0000000   0.0000000   0.0000000   0.0000000   0.0000000   0.0000000
 NQMom=    0.0000000   0.0000000   0.0000000   0.0000000   0.0000000   0.0000000   0.0000000   0.0000000   0.0000000   0.0000000
 NMagM=    0.0000000   0.0000000   0.0000000   0.0000000   0.0000000   0.0000000   0.0000000   0.0000000   0.0000000   2.7928460
 AtZNuc=   6.0000000   6.0000000   6.0000000   6.0000000   6.0000000   6.0000000   6.0000000   6.0000000   8.0000000   1.0000000

  Atom        31          32          33          34          35          36          37          38          39          40
 IAtWgt=           1           1           1           1           1           1           1           1           1           1
 AtmWgt=   1.0078250   1.0078250   1.0078250   1.0078250   1.0078250   1.0078250   1.0078250   1.0078250   1.0078250   1.0078250
 NucSpn=           1           1           1           1           1           1           1           1           1           1
 AtZEff=   0.0000000   0.0000000   0.0000000   0.0000000   0.0000000   0.0000000   0.0000000   0.0000000   0.0000000   0.0000000
 NQMom=    0.0000000   0.0000000   0.0000000   0.0000000   0.0000000   0.0000000   0.0000000   0.0000000   0.0000000   0.0000000
 NMagM=    2.7928460   2.7928460   2.7928460   2.7928460   2.7928460   2.7928460   2.7928460   2.7928460   2.7928460   2.7928460
 AtZNuc=   1.0000000   1.0000000   1.0000000   1.0000000   1.0000000   1.0000000   1.0000000   1.0000000   1.0000000   1.0000000

  Atom        41          42          43          44          45          46          47
 IAtWgt=           1           1           1           1           1           1           1
 AtmWgt=   1.0078250   1.0078250   1.0078250   1.0078250   1.0078250   1.0078250   1.0078250
 NucSpn=           1           1           1           1           1           1           1
 AtZEff=   0.0000000   0.0000000   0.0000000   0.0000000   0.0000000   0.0000000   0.0000000
 NQMom=    0.0000000   0.0000000   0.0000000   0.0000000   0.0000000   0.0000000   0.0000000
 NMagM=    2.7928460   2.7928460   2.7928460   2.7928460   2.7928460   2.7928460   2.7928460
 AtZNuc=   1.0000000   1.0000000   1.0000000   1.0000000   1.0000000   1.0000000   1.0000000
 Leave Link  101 at Sat Jul 06 20:33:59 2019, MaxMem=   209715200 cpu:         0.0
 (Enter C:\G09W\l103.exe)

 GradGradGradGradGradGradGradGradGradGradGradGradGradGradGradGradGradGrad
 Berny optimization.
 Initialization pass.
                           ----------------------------
                           !    Initial Parameters    !
                           ! (Angstroms and Degrees)  !
 --------------------------                            --------------------------
 ! Name  Definition              Value          Derivative Info.                !
 --------------------------------------------------------------------------------
 ! R1    R(1,2)                  1.3842         estimate D2E/DX2                !
 ! R2    R(1,6)                  1.3859         estimate D2E/DX2                !
 ! R3    R(1,32)                 1.0757         estimate D2E/DX2                !
 ! R4    R(2,3)                  1.3907         estimate D2E/DX2                !
 ! R5    R(2,7)                  1.4258         estimate D2E/DX2                !
 ! R6    R(3,4)                  1.3791         estimate D2E/DX2                !
 ! R7    R(3,33)                 1.0753         estimate D2E/DX2                !
 ! R8    R(4,5)                  1.3902         estimate D2E/DX2                !
 ! R9    R(4,34)                 1.0739         estimate D2E/DX2                !
 ! R10   R(5,6)                  1.3854         estimate D2E/DX2                !
 ! R11   R(5,29)                 1.3461         estimate D2E/DX2                !
 ! R12   R(6,35)                 1.0766         estimate D2E/DX2                !
 ! R13   R(7,8)                  1.3496         estimate D2E/DX2                !
 ! R14   R(7,36)                 0.9964         estimate D2E/DX2                !
 ! R15   R(8,9)                  1.3343         estimate D2E/DX2                !
 ! R16   R(8,10)                 1.5152         estimate D2E/DX2                !
 ! R17   R(9,11)                 1.4574         estimate D2E/DX2                !
 ! R18   R(9,13)                 1.7187         estimate D2E/DX2                !
 ! R19   R(10,12)                1.4118         estimate D2E/DX2                !
 ! R20   R(10,15)                1.5404         estimate D2E/DX2                !
 ! R21   R(10,30)                1.0822         estimate D2E/DX2                !
 ! R22   R(11,12)                1.3545         estimate D2E/DX2                !
 ! R23   R(11,14)                1.1797         estimate D2E/DX2                !
 ! R24   R(15,16)                1.5206         estimate D2E/DX2                !
 ! R25   R(15,17)                1.3956         estimate D2E/DX2                !
 ! R26   R(15,31)                1.0801         estimate D2E/DX2                !
 ! R27   R(16,18)                1.3871         estimate D2E/DX2                !
 ! R28   R(16,22)                1.392          estimate D2E/DX2                !
 ! R29   R(17,37)                0.9441         estimate D2E/DX2                !
 ! R30   R(18,19)                1.385          estimate D2E/DX2                !
 ! R31   R(18,38)                1.0766         estimate D2E/DX2                !
 ! R32   R(19,20)                1.3897         estimate D2E/DX2                !
 ! R33   R(19,39)                1.0753         estimate D2E/DX2                !
 ! R34   R(20,21)                1.3934         estimate D2E/DX2                !
 ! R35   R(20,23)                1.4905         estimate D2E/DX2                !
 ! R36   R(21,22)                1.382          estimate D2E/DX2                !
 ! R37   R(21,40)                1.0752         estimate D2E/DX2                !
 ! R38   R(22,41)                1.0746         estimate D2E/DX2                !
 ! R39   R(23,24)                1.3925         estimate D2E/DX2                !
 ! R40   R(23,28)                1.3926         estimate D2E/DX2                !
 ! R41   R(24,25)                1.3844         estimate D2E/DX2                !
 ! R42   R(24,42)                1.0755         estimate D2E/DX2                !
 ! R43   R(25,26)                1.385          estimate D2E/DX2                !
 ! R44   R(25,43)                1.0758         estimate D2E/DX2                !
 ! R45   R(26,27)                1.385          estimate D2E/DX2                !
 ! R46   R(26,44)                1.0756         estimate D2E/DX2                !
 ! R47   R(27,28)                1.3843         estimate D2E/DX2                !
 ! R48   R(27,45)                1.0758         estimate D2E/DX2                !
 ! R49   R(28,46)                1.0755         estimate D2E/DX2                !
 ! R50   R(29,47)                0.943          estimate D2E/DX2                !
 ! A1    A(2,1,6)              120.649          estimate D2E/DX2                !
 ! A2    A(2,1,32)             119.7627         estimate D2E/DX2                !
 ! A3    A(6,1,32)             119.5872         estimate D2E/DX2                !
 ! A4    A(1,2,3)              119.029          estimate D2E/DX2                !
 ! A5    A(1,2,7)              121.3505         estimate D2E/DX2                !
 ! A6    A(3,2,7)              119.5919         estimate D2E/DX2                !
 ! A7    A(2,3,4)              120.7748         estimate D2E/DX2                !
 ! A8    A(2,3,33)             119.1363         estimate D2E/DX2                !
 ! A9    A(4,3,33)             120.0886         estimate D2E/DX2                !
 ! A10   A(3,4,5)              119.7879         estimate D2E/DX2                !
 ! A11   A(3,4,34)             121.2093         estimate D2E/DX2                !
 ! A12   A(5,4,34)             119.0016         estimate D2E/DX2                !
 ! A13   A(4,5,6)              119.8915         estimate D2E/DX2                !
 ! A14   A(4,5,29)             117.3617         estimate D2E/DX2                !
 ! A15   A(6,5,29)             122.7468         estimate D2E/DX2                !
 ! A16   A(1,6,5)              119.8527         estimate D2E/DX2                !
 ! A17   A(1,6,35)             119.8563         estimate D2E/DX2                !
 ! A18   A(5,6,35)             120.2865         estimate D2E/DX2                !
 ! A19   A(2,7,8)              125.4338         estimate D2E/DX2                !
 ! A20   A(2,7,36)             116.783          estimate D2E/DX2                !
 ! A21   A(8,7,36)             115.2997         estimate D2E/DX2                !
 ! A22   A(7,8,9)              128.2459         estimate D2E/DX2                !
 ! A23   A(7,8,10)             124.0776         estimate D2E/DX2                !
 ! A24   A(9,8,10)             107.6423         estimate D2E/DX2                !
 ! A25   A(8,9,11)             109.9067         estimate D2E/DX2                !
 ! A26   A(8,9,13)             127.0001         estimate D2E/DX2                !
 ! A27   A(11,9,13)            123.0915         estimate D2E/DX2                !
 ! A28   A(8,10,12)            103.7516         estimate D2E/DX2                !
 ! A29   A(8,10,15)            113.8317         estimate D2E/DX2                !
 ! A30   A(8,10,30)            111.2818         estimate D2E/DX2                !
 ! A31   A(12,10,15)           109.2294         estimate D2E/DX2                !
 ! A32   A(12,10,30)           108.58           estimate D2E/DX2                !
 ! A33   A(15,10,30)           109.8794         estimate D2E/DX2                !
 ! A34   A(9,11,12)            106.7811         estimate D2E/DX2                !
 ! A35   A(9,11,14)            130.7896         estimate D2E/DX2                !
 ! A36   A(12,11,14)           122.4277         estimate D2E/DX2                !
 ! A37   A(10,12,11)           111.8082         estimate D2E/DX2                !
 ! A38   A(10,15,16)           112.4274         estimate D2E/DX2                !
 ! A39   A(10,15,17)           109.9257         estimate D2E/DX2                !
 ! A40   A(10,15,31)           107.3373         estimate D2E/DX2                !
 ! A41   A(16,15,17)           113.5765         estimate D2E/DX2                !
 ! A42   A(16,15,31)           107.5702         estimate D2E/DX2                !
 ! A43   A(17,15,31)           105.5497         estimate D2E/DX2                !
 ! A44   A(15,16,18)           119.5148         estimate D2E/DX2                !
 ! A45   A(15,16,22)           122.3044         estimate D2E/DX2                !
 ! A46   A(18,16,22)           118.1785         estimate D2E/DX2                !
 ! A47   A(15,17,37)           110.1326         estimate D2E/DX2                !
 ! A48   A(16,18,19)           121.1345         estimate D2E/DX2                !
 ! A49   A(16,18,38)           119.7598         estimate D2E/DX2                !
 ! A50   A(19,18,38)           119.1052         estimate D2E/DX2                !
 ! A51   A(18,19,20)           120.8427         estimate D2E/DX2                !
 ! A52   A(18,19,39)           119.4018         estimate D2E/DX2                !
 ! A53   A(20,19,39)           119.7498         estimate D2E/DX2                !
 ! A54   A(19,20,21)           117.9342         estimate D2E/DX2                !
 ! A55   A(19,20,23)           121.0643         estimate D2E/DX2                !
 ! A56   A(21,20,23)           121.0015         estimate D2E/DX2                !
 ! A57   A(20,21,22)           121.2052         estimate D2E/DX2                !
 ! A58   A(20,21,40)           119.5835         estimate D2E/DX2                !
 ! A59   A(22,21,40)           119.2045         estimate D2E/DX2                !
 ! A60   A(16,22,21)           120.7038         estimate D2E/DX2                !
 ! A61   A(16,22,41)           120.3823         estimate D2E/DX2                !
 ! A62   A(21,22,41)           118.9108         estimate D2E/DX2                !
 ! A63   A(20,23,24)           120.7913         estimate D2E/DX2                !
 ! A64   A(20,23,28)           120.7891         estimate D2E/DX2                !
 ! A65   A(24,23,28)           118.4196         estimate D2E/DX2                !
 ! A66   A(23,24,25)           120.799          estimate D2E/DX2                !
 ! A67   A(23,24,42)           119.5918         estimate D2E/DX2                !
 ! A68   A(25,24,42)           119.5963         estimate D2E/DX2                !
 ! A69   A(24,25,26)           120.2385         estimate D2E/DX2                !
 ! A70   A(24,25,43)           119.6761         estimate D2E/DX2                !
 ! A71   A(26,25,43)           120.0836         estimate D2E/DX2                !
 ! A72   A(25,26,27)           119.506          estimate D2E/DX2                !
 ! A73   A(25,26,44)           120.2482         estimate D2E/DX2                !
 ! A74   A(27,26,44)           120.2457         estimate D2E/DX2                !
 ! A75   A(26,27,28)           120.2398         estimate D2E/DX2                !
 ! A76   A(26,27,45)           120.0869         estimate D2E/DX2                !
 ! A77   A(28,27,45)           119.6722         estimate D2E/DX2                !
 ! A78   A(23,28,27)           120.7972         estimate D2E/DX2                !
 ! A79   A(23,28,46)           119.6101         estimate D2E/DX2                !
 ! A80   A(27,28,46)           119.5824         estimate D2E/DX2                !
 ! A81   A(5,29,47)            111.4431         estimate D2E/DX2                !
 ! D1    D(6,1,2,3)             -1.3462         estimate D2E/DX2                !
 ! D2    D(6,1,2,7)           -179.3919         estimate D2E/DX2                !
 ! D3    D(32,1,2,3)           178.2706         estimate D2E/DX2                !
 ! D4    D(32,1,2,7)             0.2249         estimate D2E/DX2                !
 ! D5    D(2,1,6,5)              1.2396         estimate D2E/DX2                !
 ! D6    D(2,1,6,35)          -179.5371         estimate D2E/DX2                !
 ! D7    D(32,1,6,5)          -178.3778         estimate D2E/DX2                !
 ! D8    D(32,1,6,35)            0.8454         estimate D2E/DX2                !
 ! D9    D(1,2,3,4)              0.4631         estimate D2E/DX2                !
 ! D10   D(1,2,3,33)          -179.7469         estimate D2E/DX2                !
 ! D11   D(7,2,3,4)            178.5438         estimate D2E/DX2                !
 ! D12   D(7,2,3,33)            -1.6662         estimate D2E/DX2                !
 ! D13   D(1,2,7,8)            -61.0864         estimate D2E/DX2                !
 ! D14   D(1,2,7,36)           100.1212         estimate D2E/DX2                !
 ! D15   D(3,2,7,8)            120.8787         estimate D2E/DX2                !
 ! D16   D(3,2,7,36)           -77.9137         estimate D2E/DX2                !
 ! D17   D(2,3,4,5)              0.5219         estimate D2E/DX2                !
 ! D18   D(2,3,4,34)          -179.8834         estimate D2E/DX2                !
 ! D19   D(33,3,4,5)          -179.2661         estimate D2E/DX2                !
 ! D20   D(33,3,4,34)            0.3286         estimate D2E/DX2                !
 ! D21   D(3,4,5,6)             -0.6354         estimate D2E/DX2                !
 ! D22   D(3,4,5,29)           179.4302         estimate D2E/DX2                !
 ! D23   D(34,4,5,6)           179.7608         estimate D2E/DX2                !
 ! D24   D(34,4,5,29)           -0.1735         estimate D2E/DX2                !
 ! D25   D(4,5,6,1)             -0.2366         estimate D2E/DX2                !
 ! D26   D(4,5,6,35)          -179.4565         estimate D2E/DX2                !
 ! D27   D(29,5,6,1)           179.6941         estimate D2E/DX2                !
 ! D28   D(29,5,6,35)            0.4742         estimate D2E/DX2                !
 ! D29   D(4,5,29,47)          179.716          estimate D2E/DX2                !
 ! D30   D(6,5,29,47)           -0.2164         estimate D2E/DX2                !
 ! D31   D(2,7,8,9)            160.8386         estimate D2E/DX2                !
 ! D32   D(2,7,8,10)           -21.5576         estimate D2E/DX2                !
 ! D33   D(36,7,8,9)            -0.614          estimate D2E/DX2                !
 ! D34   D(36,7,8,10)          176.9898         estimate D2E/DX2                !
 ! D35   D(7,8,9,11)           178.2794         estimate D2E/DX2                !
 ! D36   D(7,8,9,13)            -1.2469         estimate D2E/DX2                !
 ! D37   D(10,8,9,11)            0.362          estimate D2E/DX2                !
 ! D38   D(10,8,9,13)         -179.1643         estimate D2E/DX2                !
 ! D39   D(7,8,10,12)          179.7808         estimate D2E/DX2                !
 ! D40   D(7,8,10,15)          -61.6137         estimate D2E/DX2                !
 ! D41   D(7,8,10,30)           63.2061         estimate D2E/DX2                !
 ! D42   D(9,8,10,12)           -2.1938         estimate D2E/DX2                !
 ! D43   D(9,8,10,15)          116.4117         estimate D2E/DX2                !
 ! D44   D(9,8,10,30)         -118.7684         estimate D2E/DX2                !
 ! D45   D(8,9,11,12)            1.7113         estimate D2E/DX2                !
 ! D46   D(8,9,11,14)         -178.7589         estimate D2E/DX2                !
 ! D47   D(13,9,11,12)        -178.7403         estimate D2E/DX2                !
 ! D48   D(13,9,11,14)           0.7895         estimate D2E/DX2                !
 ! D49   D(8,10,12,11)           3.3746         estimate D2E/DX2                !
 ! D50   D(15,10,12,11)       -118.3555         estimate D2E/DX2                !
 ! D51   D(30,10,12,11)        121.8302         estimate D2E/DX2                !
 ! D52   D(8,10,15,16)         170.5498         estimate D2E/DX2                !
 ! D53   D(8,10,15,17)         -61.8701         estimate D2E/DX2                !
 ! D54   D(8,10,15,31)          52.4529         estimate D2E/DX2                !
 ! D55   D(12,10,15,16)        -74.027          estimate D2E/DX2                !
 ! D56   D(12,10,15,17)         53.5531         estimate D2E/DX2                !
 ! D57   D(12,10,15,31)        167.8762         estimate D2E/DX2                !
 ! D58   D(30,10,15,16)         44.9832         estimate D2E/DX2                !
 ! D59   D(30,10,15,17)        172.5633         estimate D2E/DX2                !
 ! D60   D(30,10,15,31)        -73.1136         estimate D2E/DX2                !
 ! D61   D(9,11,12,10)          -3.2435         estimate D2E/DX2                !
 ! D62   D(14,11,12,10)        177.1783         estimate D2E/DX2                !
 ! D63   D(10,15,16,18)       -115.7771         estimate D2E/DX2                !
 ! D64   D(10,15,16,22)         64.7831         estimate D2E/DX2                !
 ! D65   D(17,15,16,18)        118.6046         estimate D2E/DX2                !
 ! D66   D(17,15,16,22)        -60.8351         estimate D2E/DX2                !
 ! D67   D(31,15,16,18)          2.1822         estimate D2E/DX2                !
 ! D68   D(31,15,16,22)       -177.2575         estimate D2E/DX2                !
 ! D69   D(10,15,17,37)        -70.417          estimate D2E/DX2                !
 ! D70   D(16,15,17,37)         56.5218         estimate D2E/DX2                !
 ! D71   D(31,15,17,37)        174.1229         estimate D2E/DX2                !
 ! D72   D(15,16,18,19)       -179.5572         estimate D2E/DX2                !
 ! D73   D(15,16,18,38)          0.6923         estimate D2E/DX2                !
 ! D74   D(22,16,18,19)         -0.0944         estimate D2E/DX2                !
 ! D75   D(22,16,18,38)       -179.8449         estimate D2E/DX2                !
 ! D76   D(15,16,22,21)        179.2386         estimate D2E/DX2                !
 ! D77   D(15,16,22,41)         -1.4069         estimate D2E/DX2                !
 ! D78   D(18,16,22,21)         -0.2084         estimate D2E/DX2                !
 ! D79   D(18,16,22,41)        179.1462         estimate D2E/DX2                !
 ! D80   D(16,18,19,20)          0.3186         estimate D2E/DX2                !
 ! D81   D(16,18,19,39)       -178.8125         estimate D2E/DX2                !
 ! D82   D(38,18,19,20)       -179.9292         estimate D2E/DX2                !
 ! D83   D(38,18,19,39)          0.9397         estimate D2E/DX2                !
 ! D84   D(18,19,20,21)         -0.2313         estimate D2E/DX2                !
 ! D85   D(18,19,20,23)        179.8192         estimate D2E/DX2                !
 ! D86   D(39,19,20,21)        178.8968         estimate D2E/DX2                !
 ! D87   D(39,19,20,23)         -1.0527         estimate D2E/DX2                !
 ! D88   D(19,20,21,22)         -0.0716         estimate D2E/DX2                !
 ! D89   D(19,20,21,40)        178.9705         estimate D2E/DX2                !
 ! D90   D(23,20,21,22)        179.8779         estimate D2E/DX2                !
 ! D91   D(23,20,21,40)         -1.08           estimate D2E/DX2                !
 ! D92   D(19,20,23,24)        -45.0021         estimate D2E/DX2                !
 ! D93   D(19,20,23,28)        134.9855         estimate D2E/DX2                !
 ! D94   D(21,20,23,24)        135.05           estimate D2E/DX2                !
 ! D95   D(21,20,23,28)        -44.9625         estimate D2E/DX2                !
 ! D96   D(20,21,22,16)          0.2947         estimate D2E/DX2                !
 ! D97   D(20,21,22,41)       -179.0693         estimate D2E/DX2                !
 ! D98   D(40,21,22,16)       -178.7511         estimate D2E/DX2                !
 ! D99   D(40,21,22,41)          1.885          estimate D2E/DX2                !
 ! D100  D(20,23,24,25)        179.9494         estimate D2E/DX2                !
 ! D101  D(20,23,24,42)         -1.3645         estimate D2E/DX2                !
 ! D102  D(28,23,24,25)         -0.0385         estimate D2E/DX2                !
 ! D103  D(28,23,24,42)        178.6476         estimate D2E/DX2                !
 ! D104  D(20,23,28,27)       -179.9585         estimate D2E/DX2                !
 ! D105  D(20,23,28,46)         -1.1351         estimate D2E/DX2                !
 ! D106  D(24,23,28,27)          0.0294         estimate D2E/DX2                !
 ! D107  D(24,23,28,46)        178.8528         estimate D2E/DX2                !
 ! D108  D(23,24,25,26)          0.0179         estimate D2E/DX2                !
 ! D109  D(23,24,25,43)        179.529          estimate D2E/DX2                !
 ! D110  D(42,24,25,26)       -178.6681         estimate D2E/DX2                !
 ! D111  D(42,24,25,43)          0.843          estimate D2E/DX2                !
 ! D112  D(24,25,26,27)          0.0126         estimate D2E/DX2                !
 ! D113  D(24,25,26,44)        179.9543         estimate D2E/DX2                !
 ! D114  D(43,25,26,27)       -179.4965         estimate D2E/DX2                !
 ! D115  D(43,25,26,44)          0.4452         estimate D2E/DX2                !
 ! D116  D(25,26,27,28)         -0.0216         estimate D2E/DX2                !
 ! D117  D(25,26,27,45)       -179.6324         estimate D2E/DX2                !
 ! D118  D(44,26,27,28)       -179.9633         estimate D2E/DX2                !
 ! D119  D(44,26,27,45)          0.4259         estimate D2E/DX2                !
 ! D120  D(26,27,28,23)          0.0004         estimate D2E/DX2                !
 ! D121  D(26,27,28,46)       -178.8234         estimate D2E/DX2                !
 ! D122  D(45,27,28,23)        179.6128         estimate D2E/DX2                !
 ! D123  D(45,27,28,46)          0.789          estimate D2E/DX2                !
 --------------------------------------------------------------------------------
 Trust Radius=3.00D-01 FncErr=1.00D-07 GrdErr=1.00D-06
 Number of steps in this run=    264 maximum allowed number of steps=    282.
 GradGradGradGradGradGradGradGradGradGradGradGradGradGradGradGradGradGrad

 Leave Link  103 at Sat Jul 06 20:33:59 2019, MaxMem=   209715200 cpu:         0.0
 (Enter C:\G09W\l202.exe)
                          Input orientation:                          
 ---------------------------------------------------------------------
 Center     Atomic      Atomic             Coordinates (Angstroms)
 Number     Number       Type             X           Y           Z
 ---------------------------------------------------------------------
      1          6           0        2.806428    2.128766   -1.278524
      2          6           0        3.115387    1.683660   -0.004807
      3          6           0        2.935317    2.543980    1.072853
      4          6           0        2.447380    3.819842    0.883333
      5          6           0        2.120388    4.251059   -0.397157
      6          6           0        2.298341    3.402660   -1.477874
      7          7           0        3.650786    0.380827    0.216164
      8          6           0        3.035701   -0.780405   -0.091463
      9          6           0        3.580675   -1.988871   -0.243108
     10          6           0        1.538998   -0.924962   -0.277750
     11          6           0        2.541889   -2.968672   -0.534295
     12          8           0        1.369835   -2.291913   -0.587439
     13         17           0        5.245412   -2.396349   -0.114370
     14          8           0        2.608788   -4.132936   -0.712681
     15          6           0        0.719343   -0.584813    0.981361
     16          6           0       -0.773562   -0.516347    0.700751
     17          8           0        1.053186   -1.458997    2.016719
     18          6           0       -1.442717    0.689171    0.852038
     19          6           0       -2.803591    0.787555    0.614317
     20          6           0       -3.540606   -0.323614    0.222630
     21          6           0       -2.866856   -1.534066    0.072808
     22          6           0       -1.507806   -1.630450    0.304097
     23          6           0       -5.006109   -0.224220   -0.030647
     24          6           0       -5.836993    0.462154    0.851191
     25          6           0       -7.197973    0.555452    0.615567
     26          6           0       -7.753753   -0.036396   -0.506488
     27          6           0       -6.937840   -0.722408   -1.390768
     28          6           0       -5.576902   -0.815342   -1.154928
     29          8           0        1.637364    5.501060   -0.524530
     30          1           0        1.188680   -0.335752   -1.115194
     31          1           0        1.033489    0.393084    1.315457
     32          1           0        2.967467    1.482914   -2.123594
     33          1           0        3.178670    2.201368    2.062656
     34          1           0        2.307343    4.490614    1.710257
     35          1           0        2.055418    3.733091   -2.473336
     36          1           0        4.635525    0.317556    0.354098
     37          1           0        0.724476   -2.324185    1.830227
     38          1           0       -0.899229    1.567663    1.155431
     39          1           0       -3.290726    1.740214    0.721574
     40          1           0       -3.414112   -2.414358   -0.213111
     41          1           0       -1.022739   -2.578909    0.162791
     42          1           0       -5.419502    0.907213    1.736827
     43          1           0       -7.824279    1.083680    1.312819
     44          1           0       -8.811283    0.035371   -0.689331
     45          1           0       -7.358781   -1.180652   -2.268395
     46          1           0       -4.950350   -1.334337   -1.858370
     47          1           0        1.448228    5.707470   -1.425032
 ---------------------------------------------------------------------
                    Distance matrix (angstroms):
                    1          2          3          4          5
     1  C    0.000000
     2  C    1.384171   0.000000
     3  C    2.391232   1.390657   0.000000
     4  C    2.768082   2.407966   1.379066   0.000000
     5  C    2.398246   2.781277   2.395654   1.390153   0.000000
     6  C    1.385893   2.406751   2.765733   2.402405   1.385423
     7  N    2.449964   1.425782   2.434141   3.704069   4.206777
     8  C    3.150390   2.466876   3.523811   4.739053   5.123171
     9  C    4.315840   3.709550   4.763925   6.024481   6.410374
    10  C    3.454444   3.060132   3.975851   4.968545   5.209939
    11  C    5.158268   4.717356   5.755610   6.935598   7.233325
    12  O    4.699340   4.380821   5.347258   6.377917   6.588628
    13  Cl   5.270727   4.603855   5.581477   6.889516   7.350767
    14  O    6.290322   5.881370   6.919246   8.112952   8.404134
    15  C    4.102014   3.443766   3.835135   4.732516   5.220048
    16  C    4.871394   4.523468   4.822846   5.404659   5.684057
    17  O    5.177309   4.267966   4.522955   5.576243   6.290505
    18  C    4.966584   4.743364   4.759859   4.993489   5.190689
    19  C    6.070750   6.018357   6.019165   6.069582   6.104466
    20  C    6.967960   6.955798   7.133271   7.311685   7.304699
    21  C    6.886842   6.793160   7.162106   7.586988   7.652525
    22  C    5.937088   5.696724   6.144770   6.759045   6.946056
    23  C    8.254058   8.342624   8.482151   8.529027   8.423147
    24  C    9.056600   9.075787   9.018678   8.939012   8.901353
    25  C   10.302958  10.393417  10.336678  10.186303  10.075464
    26  C   10.807469  11.015829  11.108955  10.993875  10.765356
    27  C   10.153450  10.429642  10.687280  10.671735  10.381432
    28  C    8.886128   9.117219   9.418382   9.488337   9.246129
    29  O    3.647956   4.126404   3.602865   2.337669   1.346120
    30  H    2.952564   3.003862   4.016360   4.779895   4.735239
    31  H    3.589518   2.782622   2.881347   3.732089   4.358712
    32  H    1.075733   2.133410   3.368110   3.843609   3.370572
    33  H    3.362636   2.132236   1.075320   2.131911   3.372221
    34  H    3.841904   3.387236   2.142433   1.073941   2.129209
    35  H    2.136691   3.378955   3.842351   3.380590   2.140802
    36  H    3.048201   2.075060   2.892106   4.163421   4.728926
    37  H    5.816152   5.014641   5.400043   6.450897   7.081218
    38  H    4.468878   4.180520   3.957746   4.043036   4.327728
    39  H    6.428581   6.447411   6.287531   6.105479   6.069271
    40  H    7.776259   7.711777   8.158068   8.626965   8.665584
    41  H    6.237156   5.943204   6.537462   7.314706   7.539314
    42  H    8.845929   8.745312   8.539489   8.432063   8.519691
    43  H   10.991779  11.035054  10.860892  10.638516  10.576044
    44  H   11.819503  12.059473  12.140059  11.981360  11.720018
    45  H   10.736087  11.092173  11.445754  11.449853  11.084208
    46  H    8.514512   8.809093   9.263755   9.423848   9.128369
    47  H    3.830574   4.581212   4.296339   3.144836   1.905114
                    6          7          8          9         10
     6  C    0.000000
     7  N    3.718917   0.000000
     8  C    4.468094   1.349601   0.000000
     9  C    5.677819   2.414812   1.334310   0.000000
    10  C    4.554691   2.531538   1.515163   2.302509   0.000000
    11  C    6.445427   3.607213   2.286583   1.457352   2.290929
    12  O    5.838078   3.604449   2.303423   2.257922   1.411764
    13  Cl   6.646268   3.219440   2.737631   1.718709   3.991137
    14  O    7.580706   4.724677   3.436223   2.400433   3.409503
    15  C    4.943785   3.179834   2.560219   3.414370   1.540421
    16  C    5.435219   4.540330   3.899720   4.692396   2.544084
    17  O    6.115415   3.657113   2.972421   3.431586   2.405368
    18  C    5.175619   5.142294   4.806878   5.797044   3.573859
    19  C    6.102929   6.479424   6.087196   7.014454   4.752534
    20  C    7.132330   7.225815   6.599631   7.328208   5.139492
    21  C    7.311302   6.794632   5.952745   6.471268   4.461552
    22  C    6.557009   5.537512   4.639235   5.130355   3.181081
    23  C    8.282736   8.681522   8.061250   8.768808   6.587148
    24  C    8.958503   9.509355   9.008732   9.792726   7.589719
    25  C   10.132575  10.857513  10.344684  11.108112   8.906419
    26  C   10.668425  11.435026  10.823036  11.504381   9.337938
    27  C   10.115869  10.766539  10.057986  10.656463   8.551995
    28  C    8.939535   9.405368   8.678082   9.277381   7.170599
    29  O    2.397715   5.551512   6.449783   7.743043   6.431511
    30  H    3.916454   2.889285   2.158061   3.035618   1.082222
    31  H    4.296521   2.838809   2.713918   3.819816   2.128636
    32  H    2.133098   2.675068   3.042503   3.995691   3.353436
    33  H    3.841020   2.635677   3.681255   4.799610   4.235559
    34  H    3.368665   4.574659   5.617859   6.886271   5.819879
    35  H    1.076634   4.584352   5.196722   6.327810   5.175398
    36  H    4.282104   0.996363   1.990849   2.605565   3.395815
    37  H    6.798333   4.299486   3.379040   3.545282   2.657976
    38  H    4.530559   4.795147   4.748878   5.888496   3.769899
    39  H    6.232092   7.091401   6.858442   7.877362   5.606072
    40  H    8.250421   7.609870   6.654674   7.007780   5.172599
    41  H    7.035661   5.532153   4.446369   4.658789   3.080927
    42  H    8.725059   9.211928   8.813691   9.659743   7.472356
    43  H   10.753282  11.548756  11.107924  11.913625   9.707498
    44  H   11.635471  12.499697  11.890078  12.564127  10.402882
    45  H   10.718754  11.393938  10.627534  11.154672   9.121322
    46  H    8.667609   9.012492   8.197915   8.707231   6.691606
    47  H    2.457160   5.993155   6.811094   8.073286   6.731541
                   11         12         13         14         15
    11  C    0.000000
    12  O    1.354451   0.000000
    13  Cl   2.795161   3.905739   0.000000
    14  O    1.179749   2.222624   3.213331   0.000000
    15  C    3.361796   2.408000   4.996758   4.362219   0.000000
    16  C    4.304817   3.066956   6.358213   5.149543   1.520590
    17  O    3.317081   2.752391   4.795303   4.125466   1.395570
    18  C    5.583800   4.343893   7.428691   6.489665   2.512820
    19  C    6.633454   5.323986   8.686465   7.434111   3.798576
    20  C    6.675778   5.351901   9.033488   7.293887   4.334866
    21  C    5.628605   4.354286   8.160114   6.111775   3.819342
    22  C    4.346696   3.084346   6.809381   4.923680   2.551908
    23  C    8.047233   6.725923  10.479448   8.586611   5.825375
    24  C    9.159465   7.848115  11.485776   9.741240   6.640680
    25  C   10.421446   9.108350  12.809519  10.950698   8.007365
    26  C   10.705104   9.398605  13.217467  11.144793   8.620198
    27  C    9.779801   8.492711  12.363774  10.160197   8.017380
    28  C    8.422398   7.124567  10.986575   8.843502   6.652787
    29  O    8.517900   7.797817   8.692256   9.684676   6.336270
    30  H    3.016767   2.034185   4.658839   4.073982   2.162834
    31  H    4.122894   3.308074   5.250299   5.203822   1.080088
    32  H    4.745904   4.377387   4.926936   5.801474   4.355491
    33  H    5.820563   5.521274   5.490889   6.939068   3.870438
    34  H    7.793200   7.222257   7.706606   8.962539   5.367774
    35  H    6.993580   6.350378   7.301426   8.079635   5.688965
    36  H    3.996479   4.284921   2.820763   5.005253   4.067457
    37  H    3.051117   2.502526   4.921943   3.645352   1.935462
    38  H    5.939259   4.804433   7.421752   6.949306   2.698746
    39  H    7.600672   6.300190   9.522374   8.447203   4.642617
    40  H    5.990357   4.800132   8.660106   6.283184   4.675409
    41  H    3.653001   2.523811   6.276931   4.045916   2.771520
    42  H    9.141347   7.856953  11.317281   9.790640   6.362569
    43  H   11.282324   9.976840  13.600158  11.839114   8.711327
    44  H   11.744906  10.444223  14.277063  12.157029   9.695807
    45  H   10.209181   8.958195  12.844587  10.511359   8.727659
    46  H    7.781894   6.517435  10.398219   8.141580   6.385239
    47  H    8.790048   8.043496   9.044795   9.934180   6.776048
                   16         17         18         19         20
    16  C    0.000000
    17  O    2.440772   0.000000
    18  C    1.387058   3.492941   0.000000
    19  C    2.414260   4.678510   1.384980   0.000000
    20  C    2.814654   5.060709   2.413095   1.389714   0.000000
    21  C    2.410797   4.376203   2.752845   2.384776   1.393406
    22  C    1.392004   3.085636   2.384348   2.760805   2.418002
    23  C    4.305199   6.513942   3.783012   2.508137   1.490546
    24  C    5.159305   7.247334   4.400136   3.059987   2.507172
    25  C    6.513760   8.608302   5.761664   4.400508   3.781995
    26  C    7.100060   9.271059   6.496246   5.141907   4.285407
    27  C    6.512698   8.718373   6.100747   4.836566   3.781969
    28  C    5.158005   7.377784   4.835593   3.659339   2.507182
    29  O    6.597201   7.432470   5.876744   6.575423   7.829205
    30  H    2.679676   3.330003   3.441616   4.493468   4.914882
    31  H    2.114323   1.980495   2.536537   3.920509   4.757129
    32  H    5.096005   5.427845   5.379046   6.425324   7.150058
    33  H    4.986070   4.232973   5.010943   6.315378   7.410121
    34  H    5.964959   6.088078   5.408369   6.405886   7.719348
    35  H    6.011296   6.937063   5.706182   6.466819   7.418933
    36  H    5.483957   4.330543   6.109916   7.458489   8.202286
    37  H    2.605401   0.944129   3.838475   4.858870   4.977708
    38  H    2.136732   3.703297   1.076650   2.127902   3.379929
    39  H    3.380624   5.548146   2.129988   1.075344   2.137936
    40  H    3.377883   5.083464   3.827902   3.362978   2.139411
    41  H    2.146078   3.000119   3.366272   3.835152   3.380768
    42  H    4.968373   6.897317   4.079855   2.849094   2.708870
    43  H    7.255848   9.261213   6.410327   5.077687   4.638841
    44  H    8.175676  10.337485   7.556391   6.193355   5.361024
    45  H    7.254119   9.444621   6.945009   5.738782   4.638769
    46  H    4.966263   7.146629   4.872821   3.901946   2.709151
    47  H    6.941988   7.959897   6.223017   6.814871   7.998577
                   21         22         23         24         25
    21  C    0.000000
    22  C    1.381956   0.000000
    23  C    2.510538   3.785190   0.000000
    24  C    3.662306   4.839438   1.392521   0.000000
    25  C    4.839344   6.103538   2.414487   1.384373   0.000000
    26  C    5.143964   6.496915   2.794861   2.401211   1.384985
    27  C    4.401563   5.760415   2.414478   2.764314   2.392901
    28  C    3.060760   4.398943   1.392565   2.392521   2.764344
    29  O    8.374832   7.838185   8.783990   9.118618  10.189310
    30  H    4.392571   3.310841   6.289999   7.339169   8.609630
    31  H    4.524464   3.402311   6.218505   6.886497   8.262758
    32  H    6.925726   5.967813   8.418589   9.349322  10.568792
    33  H    7.379793   6.303841   8.789539   9.261463  10.605556
    34  H    8.108659   7.348474   8.873950   9.126702  10.345766
    35  H    7.645559   7.012722   8.455306   9.167424  10.259822
    36  H    7.732616   6.444978   9.664505  10.485306  11.838777
    37  H    4.075595   2.791670   6.380620   7.195490   8.516625
    38  H    3.829406   3.364976   4.635093   5.069144   6.402359
    39  H    3.364740   3.835944   2.714291   2.851967   4.084296
    40  H    1.075245   2.125093   2.713752   3.908633   4.880992
    41  H    2.121453   1.074631   4.631330   5.735765   6.939938
    42  H    3.904460   4.877890   2.138925   1.075513   2.131647
    43  H    5.741626   6.948514   3.384906   2.132768   1.075846
    44  H    6.195176   7.556629   3.870478   3.376648   2.139162
    45  H    5.077748   6.407335   3.384870   3.840113   3.370038
    46  H    2.847857   4.076157   2.139168   3.369753   3.839723
    47  H    8.561736   8.097722   8.876245   9.261154  10.269573
                   26         27         28         29         30
    26  C    0.000000
    27  C    1.385019   0.000000
    28  C    2.401231   1.384344   0.000000
    29  O   10.902148  10.630901   9.609369   0.000000
    30  H    8.968124   8.140379   6.782675   5.883755   0.000000
    31  H    8.984406   8.491764   7.159634   5.462750   2.542312
    32  H   10.948420  10.174261   8.900929   4.524564   2.736512
    33  H   11.451024  11.082345   9.803746   4.467340   4.527225
    34  H   11.253152  11.057367   9.925914   2.542468   5.703366
    35  H   10.690994  10.094658   8.982135   2.664269   4.376216
    36  H   12.424174  11.750271  10.385292   6.052245   3.803468
    37  H    9.087056   8.464726   7.134082   8.222694   3.583972
    38  H    7.233221   6.942073   5.735599   4.972744   3.624650
    39  H    4.958134   4.881387   3.908801   6.323196   5.267678
    40  H    4.957142   4.082429   2.849830   9.395118   5.130307
    41  H    7.226262   6.391288   5.058355   8.534311   3.399319
    42  H    3.372179   3.839644   3.369602   8.718746   7.303907
    43  H    2.137621   3.370031   3.840151  10.602442   9.441582
    44  H    1.075617   2.139166   3.376642  11.793012  10.015905
    45  H    2.137672   1.075829   2.132687  11.340942   8.666188
    46  H    3.372136   2.131484   1.075525   9.586436   6.263958
    47  H   10.886330  10.567433   9.590229   0.943017   6.056723
                   31         32         33         34         35
    31  H    0.000000
    32  H    4.093296   0.000000
    33  H    2.903446   4.252702   0.000000
    34  H    4.309098   4.917361   2.474680   0.000000
    35  H    5.153148   2.453049   4.917631   4.259079   0.000000
    36  H    3.728884   3.206156   2.930929   4.967294   5.130031
    37  H    2.782809   5.929394   5.153418   6.997238   7.548686
    38  H    2.267299   5.070555   4.225387   4.374195   5.156255
    39  H    4.567964   6.879401   6.623009   6.315107   6.539133
    40  H    5.477171   7.717721   8.363541   9.171316   8.533200
    41  H    3.793343   6.135773   6.641715   7.966320   7.501037
    42  H    6.487139   9.250704   8.701124   8.517371   9.032469
    43  H    8.884649  11.332701  11.084961  10.696491  10.907005
    44  H   10.053192  11.953721  12.490955  12.216016  11.616411
    45  H    9.260175  10.665221  11.884188  11.892304  10.621394
    46  H    6.990243   8.408274   9.693122   9.966908   8.668206
    47  H    5.993746   4.543451   5.239384   3.471146   2.316418
                   36         37         38         39         40
    36  H    0.000000
    37  H    4.945104   0.000000
    38  H    5.730480   4.270626   0.000000
    39  H    8.061293   5.819819   2.436650   0.000000
    40  H    8.519492   4.616413   4.904491   4.260203   0.000000
    41  H    6.359407   2.428577   4.265519   4.910278   2.426323
    42  H   10.166770   6.942559   4.605115   2.501263   4.342428
    43  H   12.520096   9.217509   6.943726   4.618843   5.832178
    44  H   13.490182  10.141320   8.267507   5.947579   5.946210
    45  H   12.368730   9.134846   7.810354   5.832705   4.615911
    46  H    9.975608   6.840263   5.823760   4.343193   2.496668
    47  H    6.509634   8.696437   5.413626   6.542532   9.543332
                   41         42         43         44         45
    41  H    0.000000
    42  H    5.827706   0.000000
    43  H    7.810126   2.448239   0.000000
    44  H    8.259660   4.260344   2.466117   0.000000
    45  H    6.929013   4.915464   4.262509   2.466154   0.000000
    46  H    4.589137   4.262639   4.915558   4.260230   2.447913
    47  H    8.791526   8.955754  10.717026  11.746128  11.212533
                   46         47
    46  H    0.000000
    47  H    9.524528   0.000000
 Stoichiometry    C23H18ClNO4
 Framework group  C1[X(C23H18ClNO4)]
 Deg. of freedom   135
 Full point group                 C1      NOp   1
 Largest Abelian subgroup         C1      NOp   1
 Largest concise Abelian subgroup C1      NOp   1
                         Standard orientation:                         
 ---------------------------------------------------------------------
 Center     Atomic      Atomic             Coordinates (Angstroms)
 Number     Number       Type             X           Y           Z
 ---------------------------------------------------------------------
      1          6           0        2.806428    2.128766   -1.278524
      2          6           0        3.115387    1.683660   -0.004807
      3          6           0        2.935317    2.543980    1.072853
      4          6           0        2.447380    3.819842    0.883333
      5          6           0        2.120388    4.251059   -0.397157
      6          6           0        2.298341    3.402660   -1.477874
      7          7           0        3.650786    0.380827    0.216164
      8          6           0        3.035701   -0.780405   -0.091463
      9          6           0        3.580675   -1.988871   -0.243108
     10          6           0        1.538998   -0.924962   -0.277750
     11          6           0        2.541889   -2.968672   -0.534295
     12          8           0        1.369835   -2.291913   -0.587439
     13         17           0        5.245412   -2.396349   -0.114370
     14          8           0        2.608788   -4.132936   -0.712681
     15          6           0        0.719343   -0.584813    0.981361
     16          6           0       -0.773562   -0.516347    0.700751
     17          8           0        1.053186   -1.458997    2.016719
     18          6           0       -1.442717    0.689171    0.852038
     19          6           0       -2.803591    0.787555    0.614317
     20          6           0       -3.540606   -0.323614    0.222630
     21          6           0       -2.866856   -1.534066    0.072808
     22          6           0       -1.507806   -1.630450    0.304097
     23          6           0       -5.006109   -0.224220   -0.030647
     24          6           0       -5.836993    0.462154    0.851191
     25          6           0       -7.197973    0.555452    0.615567
     26          6           0       -7.753753   -0.036396   -0.506488
     27          6           0       -6.937840   -0.722408   -1.390768
     28          6           0       -5.576902   -0.815342   -1.154928
     29          8           0        1.637364    5.501060   -0.524530
     30          1           0        1.188680   -0.335752   -1.115194
     31          1           0        1.033489    0.393084    1.315457
     32          1           0        2.967467    1.482914   -2.123594
     33          1           0        3.178670    2.201368    2.062656
     34          1           0        2.307343    4.490614    1.710257
     35          1           0        2.055418    3.733091   -2.473336
     36          1           0        4.635525    0.317556    0.354098
     37          1           0        0.724476   -2.324185    1.830227
     38          1           0       -0.899229    1.567663    1.155431
     39          1           0       -3.290726    1.740214    0.721574
     40          1           0       -3.414112   -2.414358   -0.213111
     41          1           0       -1.022739   -2.578909    0.162791
     42          1           0       -5.419502    0.907213    1.736827
     43          1           0       -7.824279    1.083680    1.312819
     44          1           0       -8.811283    0.035371   -0.689331
     45          1           0       -7.358781   -1.180652   -2.268395
     46          1           0       -4.950350   -1.334337   -1.858370
     47          1           0        1.448228    5.707470   -1.425032
 ---------------------------------------------------------------------
 Rotational constants (GHZ):      0.2069910      0.0808204      0.0622891
 Leave Link  202 at Sat Jul 06 20:33:59 2019, MaxMem=   209715200 cpu:         0.0
 (Enter C:\G09W\l301.exe)
 Standard basis: 6-311++G(d,p) (5D, 7F)
 Ernie: Thresh=  0.10000D-02 Tol=  0.10000D-05 Strict=F.
 There are   801 symmetry adapted cartesian basis functions of A   symmetry.
 There are   772 symmetry adapted basis functions of A   symmetry.
   772 basis functions,  1223 primitive gaussians,   801 cartesian basis functions
   106 alpha electrons      106 beta electrons
       nuclear repulsion energy      2708.6108631974 Hartrees.
 IExCor=  402 DFT=T Ex+Corr=B3LYP ExCW=0 ScaHFX=  0.200000
 ScaDFX=  0.800000  0.720000  1.000000  0.810000 ScalE2=  1.000000  1.000000
 IRadAn=      0 IRanWt=     -1 IRanGd=            0 ICorTp=0 IEmpDi=  4
 NAtoms=   47 NActive=   47 NUniq=   47 SFac= 1.00D+00 NAtFMM=   60 NAOKFM=F Big=F
 Integral buffers will be    262144 words long.
 Raffenetti 2 integral format.
 Two-electron integral symmetry is turned on.
 Leave Link  301 at Sat Jul 06 20:33:59 2019, MaxMem=   209715200 cpu:         0.0
 (Enter C:\G09W\l302.exe)
 NPDir=0 NMtPBC=     1 NCelOv=     1 NCel=       1 NClECP=     1 NCelD=      1
         NCelK=      1 NCelE2=     1 NClLst=     1 CellRange=     0.0.
 One-electron integrals computed using PRISM.
 NBasis=   772 RedAO= T EigKep=  1.38D-06  NBF=   772
 NBsUse=   765 1.00D-06 EigRej=  9.92D-07 NBFU=   765
 Precomputing XC quadrature grid using
 IXCGrd= 4 IRadAn=           0 IRanWt=          -1 IRanGd=           0 AccXCQ= 0.00D+00.
 Generated NRdTot=       0 NPtTot=           0 NUsed=           0 NTot=          16
 NSgBfM=   772   772   772   772   772 MxSgAt=    47 MxSgA2=    47.
 Leave Link  302 at Sat Jul 06 20:34:04 2019, MaxMem=   209715200 cpu:         5.0
 (Enter C:\G09W\l303.exe)
 DipDrv:  MaxL=1.
 Leave Link  303 at Sat Jul 06 20:34:04 2019, MaxMem=   209715200 cpu:         0.0
 (Enter C:\G09W\l401.exe)
 ExpMin= 3.60D-02 ExpMax= 1.06D+05 ExpMxC= 3.62D+03 IAcc=3 IRadAn=         5 AccDes= 0.00D+00
 Harris functional with IExCor=  402 and IRadAn=       5 diagonalized for initial guess.
 HarFok:  IExCor=  402 AccDes= 0.00D+00 IRadAn=         5 IDoV= 1 UseB2=F ITyADJ=14
 ICtDFT=  3500011 ScaDFX=  1.000000  1.000000  1.000000  1.000000
 FoFCou: FMM=F IPFlag=           0 FMFlag=      100000 FMFlg1=           0
         NFxFlg=           0 DoJE=T BraDBF=F KetDBF=T FulRan=T
         wScrn=  0.000000 ICntrl=     500 IOpCl=  0 I1Cent=   200000004 NGrid=           0
         NMat0=    1 NMatS0=      1 NMatT0=    0 NMatD0=    1 NMtDS0=    0 NMtDT0=    0
 Petite list used in FoFCou.
 Harris En= -1703.49063346790    
 JPrj=0 DoOrth=F DoCkMO=F.
 Leave Link  401 at Sat Jul 06 20:35:01 2019, MaxMem=   209715200 cpu:        57.0
 (Enter C:\G09W\l502.exe)
 Closed shell SCF:
 Using DIIS extrapolation, IDIIS=  1040.
 Integral symmetry usage will be decided dynamically.
 IVT=     1953022 IEndB=     1953022 NGot=   209715200 MDV=   208421221
 LenX=   208421221 LenY=   207778819
 Requested convergence on RMS density matrix=1.00D-08 within 128 cycles.
 Requested convergence on MAX density matrix=1.00D-06.
 Requested convergence on             energy=1.00D-06.
 No special actions if energy rises.
 Fock matrices will be formed incrementally for  20 cycles.

 Cycle   1  Pass 1  IDiag  1:
 FoFJK:  IHMeth= 1 ICntrl=       0 DoSepK=F KAlg= 0 I1Cent=   0 FoldK=F
 IRaf= 730000000 NMat=   1 IRICut=       1 DoRegI=T DoRafI=F ISym2E= 0.
 FoFCou: FMM=F IPFlag=           0 FMFlag=      100000 FMFlg1=           0
         NFxFlg=           0 DoJE=F BraDBF=F KetDBF=F FulRan=T
         wScrn=  0.000000 ICntrl=       0 IOpCl=  0 I1Cent=           0 NGrid=           0
         NMat0=    1 NMatS0=      1 NMatT0=    0 NMatD0=    1 NMtDS0=    0 NMtDT0=    0
 Symmetry not used in FoFCou.
 E= -1702.81095695455    
 DIIS: error= 2.05D-02 at cycle   1 NSaved=   1.
 NSaved= 1 IEnMin= 1 EnMin= -1702.81095695455     IErMin= 1 ErrMin= 2.05D-02
 ErrMax= 2.05D-02  0.00D+00 EMaxC= 1.00D-01 BMatC= 8.27D-01 BMatP= 8.27D-01
 IDIUse=3 WtCom= 7.95D-01 WtEn= 2.05D-01
 Coeff-Com:  0.100D+01
 Coeff-En:   0.100D+01
 Coeff:      0.100D+01
 Gap=     0.334 Goal=   None    Shift=    0.000
 GapD=    0.334 DampG=1.000 DampE=0.500 DampFc=0.5000 IDamp=-1.
 Damping current iteration by 5.00D-01
 RMSDP=3.00D-02 MaxDP=2.81D+00              OVMax= 2.17D-01

 Cycle   2  Pass 1  IDiag  1:
 RMSU=  1.50D-02    CP:  1.02D+00
 E= -1703.07500438874     Delta-E=       -0.264047434189 Rises=F Damp=T
 DIIS: error= 6.33D-03 at cycle   2 NSaved=   2.
 NSaved= 2 IEnMin= 2 EnMin= -1703.07500438874     IErMin= 2 ErrMin= 6.33D-03
 ErrMax= 6.33D-03  0.00D+00 EMaxC= 1.00D-01 BMatC= 7.52D-02 BMatP= 8.27D-01
 IDIUse=3 WtCom= 9.37D-01 WtEn= 6.33D-02
 Coeff-Com:  0.935D-01 0.907D+00
 Coeff-En:   0.194D+00 0.806D+00
 Coeff:      0.998D-01 0.900D+00
 Gap=     0.292 Goal=   None    Shift=    0.000
 RMSDP=1.23D-02 MaxDP=1.84D+00 DE=-2.64D-01 OVMax= 1.67D-01

 Cycle   3  Pass 1  IDiag  1:
 RMSU=  7.07D-03    CP:  9.17D-01  4.07D-01
 E= -1703.41861788639     Delta-E=       -0.343613497654 Rises=F Damp=F
 DIIS: error= 1.11D-02 at cycle   3 NSaved=   3.
 NSaved= 3 IEnMin= 3 EnMin= -1703.41861788639     IErMin= 2 ErrMin= 6.33D-03
 ErrMax= 1.11D-02  0.00D+00 EMaxC= 1.00D-01 BMatC= 9.33D-02 BMatP= 7.52D-02
 IDIUse=2 WtCom= 0.00D+00 WtEn= 1.00D+00
 Coeff-En:   0.000D+00 0.000D+00 0.100D+01
 Coeff:      0.000D+00 0.000D+00 0.100D+01
 Gap=     0.210 Goal=   None    Shift=    0.000
 RMSDP=7.43D-03 MaxDP=4.38D-01 DE=-3.44D-01 OVMax= 2.87D-01

 Cycle   4  Pass 1  IDiag  1:
 RMSU=  6.20D-03    CP:  9.37D-01  6.48D-01  1.24D+00
 E= -1703.06632104516     Delta-E=        0.352296841231 Rises=F Damp=F
 DIIS: error= 2.69D-02 at cycle   4 NSaved=   4.
 NSaved= 4 IEnMin= 3 EnMin= -1703.41861788639     IErMin= 2 ErrMin= 6.33D-03
 ErrMax= 2.69D-02  0.00D+00 EMaxC= 1.00D-01 BMatC= 5.43D-01 BMatP= 7.52D-02
 IDIUse=2 WtCom= 0.00D+00 WtEn= 1.00D+00
 Coeff-En:   0.000D+00 0.000D+00 0.805D+00 0.195D+00
 Coeff:      0.000D+00 0.000D+00 0.805D+00 0.195D+00
 Gap=     0.202 Goal=   None    Shift=    0.000
 RMSDP=4.33D-03 MaxDP=2.93D-01 DE= 3.52D-01 OVMax= 1.31D-01

 Cycle   5  Pass 1  IDiag  1:
 RMSU=  1.25D-03    CP:  9.03D-01  5.44D-01  1.07D+00  4.75D-01
 E= -1703.45474315366     Delta-E=       -0.388422108500 Rises=F Damp=F
 DIIS: error= 7.16D-03 at cycle   5 NSaved=   5.
 NSaved= 5 IEnMin= 5 EnMin= -1703.45474315366     IErMin= 2 ErrMin= 6.33D-03
 ErrMax= 7.16D-03  0.00D+00 EMaxC= 1.00D-01 BMatC= 4.50D-02 BMatP= 7.52D-02
 IDIUse=3 WtCom= 9.28D-01 WtEn= 7.16D-02
 Coeff-Com:  0.817D-02 0.167D-02 0.341D+00-0.622D-01 0.711D+00
 Coeff-En:   0.000D+00 0.000D+00 0.364D+00 0.000D+00 0.636D+00
 Coeff:      0.759D-02 0.155D-02 0.343D+00-0.577D-01 0.706D+00
 Gap=     0.187 Goal=   None    Shift=    0.000
 RMSDP=1.88D-03 MaxDP=1.36D-01 DE=-3.88D-01 OVMax= 3.96D-02

 Cycle   6  Pass 1  IDiag  1:
 RMSU=  8.52D-04    CP:  8.90D-01  4.98D-01  1.00D+00  2.64D-01  8.05D-01
 E= -1703.48708845264     Delta-E=       -0.032345298980 Rises=F Damp=F
 DIIS: error= 5.87D-04 at cycle   6 NSaved=   6.
 NSaved= 6 IEnMin= 6 EnMin= -1703.48708845264     IErMin= 6 ErrMin= 5.87D-04
 ErrMax= 5.87D-04  0.00D+00 EMaxC= 1.00D-01 BMatC= 4.40D-04 BMatP= 4.50D-02
 IDIUse=3 WtCom= 9.94D-01 WtEn= 5.87D-03
 Coeff-Com:  0.437D-02-0.345D-02 0.172D+00-0.562D-01 0.446D+00 0.438D+00
 Coeff-En:   0.000D+00 0.000D+00 0.000D+00 0.000D+00 0.000D+00 0.100D+01
 Coeff:      0.435D-02-0.343D-02 0.171D+00-0.558D-01 0.443D+00 0.441D+00
 Gap=     0.185 Goal=   None    Shift=    0.000
 RMSDP=4.82D-04 MaxDP=3.73D-02 DE=-3.23D-02 OVMax= 5.94D-03

 Cycle   7  Pass 1  IDiag  1:
 RMSU=  1.20D-04    CP:  8.93D-01  4.93D-01  1.02D+00  2.81D-01  8.23D-01
                    CP:  5.48D-01
 E= -1703.48743394062     Delta-E=       -0.000345487977 Rises=F Damp=F
 DIIS: error= 1.55D-04 at cycle   7 NSaved=   7.
 NSaved= 7 IEnMin= 7 EnMin= -1703.48743394062     IErMin= 7 ErrMin= 1.55D-04
 ErrMax= 1.55D-04  0.00D+00 EMaxC= 1.00D-01 BMatC= 2.88D-05 BMatP= 4.40D-04
 IDIUse=3 WtCom= 9.98D-01 WtEn= 1.55D-03
 Coeff-Com:  0.189D-02-0.225D-02 0.643D-01-0.237D-01 0.166D+00 0.199D+00
 Coeff-Com:  0.594D+00
 Coeff-En:   0.000D+00 0.000D+00 0.000D+00 0.000D+00 0.000D+00 0.000D+00
 Coeff-En:   0.100D+01
 Coeff:      0.189D-02-0.225D-02 0.642D-01-0.237D-01 0.166D+00 0.199D+00
 Coeff:      0.595D+00
 Gap=     0.185 Goal=   None    Shift=    0.000
 RMSDP=7.55D-05 MaxDP=9.98D-03 DE=-3.45D-04 OVMax= 1.82D-03

 Cycle   8  Pass 1  IDiag  1:
 RMSU=  4.44D-05    CP:  8.94D-01  4.93D-01  1.02D+00  2.79D-01  8.05D-01
                    CP:  5.57D-01  5.89D-01
 E= -1703.48744971311     Delta-E=       -0.000015772488 Rises=F Damp=F
 DIIS: error= 1.10D-04 at cycle   8 NSaved=   8.
 NSaved= 8 IEnMin= 8 EnMin= -1703.48744971311     IErMin= 8 ErrMin= 1.10D-04
 ErrMax= 1.10D-04  0.00D+00 EMaxC= 1.00D-01 BMatC= 9.52D-06 BMatP= 2.88D-05
 IDIUse=3 WtCom= 9.99D-01 WtEn= 1.10D-03
 Coeff-Com:  0.580D-03-0.123D-02 0.119D-01-0.497D-02 0.246D-01 0.443D-01
 Coeff-Com:  0.430D+00 0.495D+00
 Coeff-En:   0.000D+00 0.000D+00 0.000D+00 0.000D+00 0.000D+00 0.000D+00
 Coeff-En:   0.228D+00 0.772D+00
 Coeff:      0.579D-03-0.123D-02 0.119D-01-0.496D-02 0.245D-01 0.443D-01
 Coeff:      0.430D+00 0.495D+00
 Gap=     0.185 Goal=   None    Shift=    0.000
 RMSDP=4.82D-05 MaxDP=6.60D-03 DE=-1.58D-05 OVMax= 1.04D-03

 Cycle   9  Pass 1  IDiag  1:
 RMSU=  2.04D-05    CP:  8.94D-01  4.91D-01  1.02D+00  2.77D-01  8.18D-01
                    CP:  5.43D-01  7.11D-01  5.84D-01
 E= -1703.48745856510     Delta-E=       -0.000008851996 Rises=F Damp=F
 DIIS: error= 2.22D-05 at cycle   9 NSaved=   9.
 NSaved= 9 IEnMin= 9 EnMin= -1703.48745856510     IErMin= 9 ErrMin= 2.22D-05
 ErrMax= 2.22D-05  0.00D+00 EMaxC= 1.00D-01 BMatC= 2.08D-07 BMatP= 9.52D-06
 IDIUse=1 WtCom= 1.00D+00 WtEn= 0.00D+00
 Coeff-Com:  0.212D-03-0.558D-03 0.263D-02-0.103D-02 0.267D-02 0.111D-01
 Coeff-Com:  0.183D+00 0.253D+00 0.549D+00
 Coeff:      0.212D-03-0.558D-03 0.263D-02-0.103D-02 0.267D-02 0.111D-01
 Coeff:      0.183D+00 0.253D+00 0.549D+00
 Gap=     0.185 Goal=   None    Shift=    0.000
 RMSDP=7.53D-06 MaxDP=6.80D-04 DE=-8.85D-06 OVMax= 1.85D-04

 Cycle  10  Pass 1  IDiag  1:
 RMSU=  4.55D-06    CP:  8.94D-01  4.91D-01  1.02D+00  2.77D-01  8.16D-01
                    CP:  5.46D-01  7.12D-01  5.90D-01  7.97D-01
 E= -1703.48745873731     Delta-E=       -0.000000172206 Rises=F Damp=F
 DIIS: error= 8.64D-06 at cycle  10 NSaved=  10.
 NSaved=10 IEnMin=10 EnMin= -1703.48745873731     IErMin=10 ErrMin= 8.64D-06
 ErrMax= 8.64D-06  0.00D+00 EMaxC= 1.00D-01 BMatC= 3.76D-08 BMatP= 2.08D-07
 IDIUse=1 WtCom= 1.00D+00 WtEn= 0.00D+00
 Coeff-Com:  0.493D-04-0.154D-03 0.415D-04 0.183D-04-0.116D-02 0.117D-02
 Coeff-Com:  0.406D-01 0.709D-01 0.335D+00 0.553D+00
 Coeff:      0.493D-04-0.154D-03 0.415D-04 0.183D-04-0.116D-02 0.117D-02
 Coeff:      0.406D-01 0.709D-01 0.335D+00 0.553D+00
 Gap=     0.185 Goal=   None    Shift=    0.000
 RMSDP=3.60D-06 MaxDP=4.12D-04 DE=-1.72D-07 OVMax= 6.84D-05

 Cycle  11  Pass 1  IDiag  1:
 RMSU=  1.73D-06    CP:  8.94D-01  4.91D-01  1.02D+00  2.77D-01  8.15D-01
                    CP:  5.48D-01  7.20D-01  5.95D-01  7.20D-01  7.95D-01
 E= -1703.48745877338     Delta-E=       -0.000000036070 Rises=F Damp=F
 DIIS: error= 1.49D-06 at cycle  11 NSaved=  11.
 NSaved=11 IEnMin=11 EnMin= -1703.48745877338     IErMin=11 ErrMin= 1.49D-06
 ErrMax= 1.49D-06  0.00D+00 EMaxC= 1.00D-01 BMatC= 2.70D-09 BMatP= 3.76D-08
 IDIUse=1 WtCom= 1.00D+00 WtEn= 0.00D+00
 Coeff-Com:  0.125D-04-0.471D-04-0.116D-03 0.617D-04-0.626D-03 0.200D-03
 Coeff-Com:  0.941D-02 0.196D-01 0.142D+00 0.290D+00 0.539D+00
 Coeff:      0.125D-04-0.471D-04-0.116D-03 0.617D-04-0.626D-03 0.200D-03
 Coeff:      0.941D-02 0.196D-01 0.142D+00 0.290D+00 0.539D+00
 Gap=     0.185 Goal=   None    Shift=    0.000
 RMSDP=9.79D-07 MaxDP=1.19D-04 DE=-3.61D-08 OVMax= 1.64D-05

 Cycle  12  Pass 1  IDiag  1:
 RMSU=  3.53D-07    CP:  8.94D-01  4.91D-01  1.02D+00  2.77D-01  8.15D-01
                    CP:  5.47D-01  7.17D-01  5.97D-01  7.44D-01  7.68D-01
                    CP:  7.24D-01
 E= -1703.48745877561     Delta-E=       -0.000000002228 Rises=F Damp=F
 DIIS: error= 4.47D-07 at cycle  12 NSaved=  12.
 NSaved=12 IEnMin=12 EnMin= -1703.48745877561     IErMin=12 ErrMin= 4.47D-07
 ErrMax= 4.47D-07  0.00D+00 EMaxC= 1.00D-01 BMatC= 2.52D-10 BMatP= 2.70D-09
 IDIUse=1 WtCom= 1.00D+00 WtEn= 0.00D+00
 Coeff-Com:  0.109D-06-0.640D-05-0.102D-03 0.414D-04-0.287D-03-0.425D-04
 Coeff-Com:  0.973D-03 0.295D-02 0.410D-01 0.905D-01 0.272D+00 0.593D+00
 Coeff:      0.109D-06-0.640D-05-0.102D-03 0.414D-04-0.287D-03-0.425D-04
 Coeff:      0.973D-03 0.295D-02 0.410D-01 0.905D-01 0.272D+00 0.593D+00
 Gap=     0.185 Goal=   None    Shift=    0.000
 RMSDP=3.57D-07 MaxDP=4.10D-05 DE=-2.23D-09 OVMax= 4.17D-06

 Cycle  13  Pass 1  IDiag  1:
 RMSU=  1.47D-07    CP:  8.94D-01  4.91D-01  1.02D+00  2.77D-01  8.15D-01
                    CP:  5.47D-01  7.17D-01  5.97D-01  7.56D-01  7.69D-01
                    CP:  7.30D-01  7.64D-01
 E= -1703.48745877593     Delta-E=       -0.000000000319 Rises=F Damp=F
 DIIS: error= 1.65D-07 at cycle  13 NSaved=  13.
 NSaved=13 IEnMin=13 EnMin= -1703.48745877593     IErMin=13 ErrMin= 1.65D-07
 ErrMax= 1.65D-07  0.00D+00 EMaxC= 1.00D-01 BMatC= 2.84D-11 BMatP= 2.52D-10
 IDIUse=1 WtCom= 1.00D+00 WtEn= 0.00D+00
 Coeff-Com: -0.133D-05 0.147D-05-0.452D-04 0.160D-04-0.929D-04-0.242D-04
 Coeff-Com: -0.236D-03-0.202D-03 0.788D-02 0.186D-01 0.863D-01 0.293D+00
 Coeff-Com:  0.595D+00
 Coeff:     -0.133D-05 0.147D-05-0.452D-04 0.160D-04-0.929D-04-0.242D-04
 Coeff:     -0.236D-03-0.202D-03 0.788D-02 0.186D-01 0.863D-01 0.293D+00
 Coeff:      0.595D+00
 Gap=     0.185 Goal=   None    Shift=    0.000
 RMSDP=9.79D-08 MaxDP=1.02D-05 DE=-3.19D-10 OVMax= 1.83D-06

 Cycle  14  Pass 1  IDiag  1:
 RMSU=  6.06D-08    CP:  8.94D-01  4.91D-01  1.02D+00  2.77D-01  8.15D-01
                    CP:  5.47D-01  7.17D-01  5.97D-01  7.55D-01  7.72D-01
                    CP:  7.27D-01  7.85D-01  7.73D-01
 E= -1703.48745877611     Delta-E=       -0.000000000185 Rises=F Damp=F
 DIIS: error= 9.82D-08 at cycle  14 NSaved=  14.
 NSaved=14 IEnMin=14 EnMin= -1703.48745877611     IErMin=14 ErrMin= 9.82D-08
 ErrMax= 9.82D-08  0.00D+00 EMaxC= 1.00D-01 BMatC= 5.92D-12 BMatP= 2.84D-11
 IDIUse=1 WtCom= 1.00D+00 WtEn= 0.00D+00
 Coeff-Com: -0.898D-06 0.186D-05-0.127D-04 0.364D-05-0.129D-04-0.263D-06
 Coeff-Com: -0.264D-03-0.526D-03-0.136D-02-0.223D-02 0.112D-01 0.831D-01
 Coeff-Com:  0.366D+00 0.544D+00
 Coeff:     -0.898D-06 0.186D-05-0.127D-04 0.364D-05-0.129D-04-0.263D-06
 Coeff:     -0.264D-03-0.526D-03-0.136D-02-0.223D-02 0.112D-01 0.831D-01
 Coeff:      0.366D+00 0.544D+00
 Gap=     0.185 Goal=   None    Shift=    0.000
 RMSDP=6.16D-08 MaxDP=7.86D-06 DE=-1.85D-10 OVMax= 7.41D-07

 Cycle  15  Pass 1  IDiag  1:
 RMSU=  2.08D-08    CP:  8.94D-01  4.91D-01  1.02D+00  2.77D-01  8.15D-01
                    CP:  5.47D-01  7.17D-01  5.97D-01  7.54D-01  7.71D-01
                    CP:  7.37D-01  7.82D-01  8.08D-01  5.96D-01
 E= -1703.48745877568     Delta-E=        0.000000000437 Rises=F Damp=F
 DIIS: error= 3.27D-08 at cycle  15 NSaved=  15.
 NSaved=15 IEnMin=14 EnMin= -1703.48745877611     IErMin=15 ErrMin= 3.27D-08
 ErrMax= 3.27D-08  0.00D+00 EMaxC= 1.00D-01 BMatC= 4.99D-13 BMatP= 5.92D-12
 IDIUse=1 WtCom= 1.00D+00 WtEn= 0.00D+00
 Coeff-Com: -0.396D-06 0.865D-06-0.278D-05 0.603D-06 0.195D-05 0.308D-05
 Coeff-Com: -0.129D-03-0.287D-03-0.175D-02-0.348D-02-0.304D-02 0.157D-01
 Coeff-Com:  0.149D+00 0.309D+00 0.535D+00
 Coeff:     -0.396D-06 0.865D-06-0.278D-05 0.603D-06 0.195D-05 0.308D-05
 Coeff:     -0.129D-03-0.287D-03-0.175D-02-0.348D-02-0.304D-02 0.157D-01
 Coeff:      0.149D+00 0.309D+00 0.535D+00
 Gap=     0.185 Goal=   None    Shift=    0.000
 RMSDP=1.38D-08 MaxDP=1.89D-06 DE= 4.37D-10 OVMax= 2.17D-07

 Cycle  16  Pass 1  IDiag  1:
 RMSU=  5.89D-09    CP:  8.94D-01  4.91D-01  1.02D+00  2.77D-01  8.15D-01
                    CP:  5.47D-01  7.17D-01  5.97D-01  7.54D-01  7.71D-01
                    CP:  7.37D-01  7.89D-01  8.04D-01  6.85D-01  6.67D-01
 E= -1703.48745877591     Delta-E=       -0.000000000238 Rises=F Damp=F
 DIIS: error= 9.92D-09 at cycle  16 NSaved=  16.
 NSaved=16 IEnMin=14 EnMin= -1703.48745877611     IErMin=16 ErrMin= 9.92D-09
 ErrMax= 9.92D-09  0.00D+00 EMaxC= 1.00D-01 BMatC= 6.74D-14 BMatP= 4.99D-13
 IDIUse=1 WtCom= 1.00D+00 WtEn= 0.00D+00
 Coeff-Com: -0.125D-06 0.288D-06-0.384D-06 0.187D-07 0.187D-05 0.202D-05
 Coeff-Com: -0.403D-04-0.956D-04-0.809D-03-0.166D-02-0.289D-02-0.829D-03
 Coeff-Com:  0.441D-01 0.116D+00 0.324D+00 0.522D+00
 Coeff:     -0.125D-06 0.288D-06-0.384D-06 0.187D-07 0.187D-05 0.202D-05
 Coeff:     -0.403D-04-0.956D-04-0.809D-03-0.166D-02-0.289D-02-0.829D-03
 Coeff:      0.441D-01 0.116D+00 0.324D+00 0.522D+00
 Gap=     0.185 Goal=   None    Shift=    0.000
 RMSDP=6.29D-09 MaxDP=6.21D-07 DE=-2.38D-10 OVMax= 7.99D-08

 SCF Done:  E(RB3LYP) =  -1703.48745878     A.U. after   16 cycles
            NFock= 16  Conv=0.63D-08     -V/T= 2.0030
 KE= 1.698422664452D+03 PE=-9.408968453759D+03 EE= 3.298447467334D+03
 Leave Link  502 at Sat Jul 06 21:22:07 2019, MaxMem=   209715200 cpu:      2826.0
 (Enter C:\G09W\l601.exe)
 Copying SCF densities to generalized density rwf, IOpCl= 0 IROHF=0.

 **********************************************************************

            Population analysis using the SCF density.

 **********************************************************************

 Orbital symmetries:
       Occupied  (A) (A) (A) (A) (A) (A) (A) (A) (A) (A) (A) (A)
                 (A) (A) (A) (A) (A) (A) (A) (A) (A) (A) (A) (A)
                 (A) (A) (A) (A) (A) (A) (A) (A) (A) (A) (A) (A)
                 (A) (A) (A) (A) (A) (A) (A) (A) (A) (A) (A) (A)
                 (A) (A) (A) (A) (A) (A) (A) (A) (A) (A) (A) (A)
                 (A) (A) (A) (A) (A) (A) (A) (A) (A) (A) (A) (A)
                 (A) (A) (A) (A) (A) (A) (A) (A) (A) (A) (A) (A)
                 (A) (A) (A) (A) (A) (A) (A) (A) (A) (A) (A) (A)
                 (A) (A) (A) (A) (A) (A) (A) (A) (A) (A)
       Virtual   (A) (A) (A) (A) (A) (A) (A) (A) (A) (A) (A) (A)
                 (A) (A) (A) (A) (A) (A) (A) (A) (A) (A) (A) (A)
                 (A) (A) (A) (A) (A) (A) (A) (A) (A) (A) (A) (A)
                 (A) (A) (A) (A) (A) (A) (A) (A) (A) (A) (A) (A)
                 (A) (A) (A) (A) (A) (A) (A) (A) (A) (A) (A) (A)
                 (A) (A) (A) (A) (A) (A) (A) (A) (A) (A) (A) (A)
                 (A) (A) (A) (A) (A) (A) (A) (A) (A) (A) (A) (A)
                 (A) (A) (A) (A) (A) (A) (A) (A) (A) (A) (A) (A)
                 (A) (A) (A) (A) (A) (A) (A) (A) (A) (A) (A) (A)
                 (A) (A) (A) (A) (A) (A) (A) (A) (A) (A) (A) (A)
                 (A) (A) (A) (A) (A) (A) (A) (A) (A) (A) (A) (A)
                 (A) (A) (A) (A) (A) (A) (A) (A) (A) (A) (A) (A)
                 (A) (A) (A) (A) (A) (A) (A) (A) (A) (A) (A) (A)
                 (A) (A) (A) (A) (A) (A) (A) (A) (A) (A) (A) (A)
                 (A) (A) (A) (A) (A) (A) (A) (A) (A) (A) (A) (A)
                 (A) (A) (A) (A) (A) (A) (A) (A) (A) (A) (A) (A)
                 (A) (A) (A) (A) (A) (A) (A) (A) (A) (A) (A) (A)
                 (A) (A) (A) (A) (A) (A) (A) (A) (A) (A) (A) (A)
                 (A) (A) (A) (A) (A) (A) (A) (A) (A) (A) (A) (A)
                 (A) (A) (A) (A) (A) (A) (A) (A) (A) (A) (A) (A)
                 (A) (A) (A) (A) (A) (A) (A) (A) (A) (A) (A) (A)
                 (A) (A) (A) (A) (A) (A) (A) (A) (A) (A) (A) (A)
                 (A) (A) (A) (A) (A) (A) (A) (A) (A) (A) (A) (A)
                 (A) (A) (A) (A) (A) (A) (A) (A) (A) (A) (A) (A)
                 (A) (A) (A) (A) (A) (A) (A) (A) (A) (A) (A) (A)
                 (A) (A) (A) (A) (A) (A) (A) (A) (A) (A) (A) (A)
                 (A) (A) (A) (A) (A) (A) (A) (A) (A) (A) (A) (A)
                 (A) (A) (A) (A) (A) (A) (A) (A) (A) (A) (A) (A)
                 (A) (A) (A) (A) (A) (A) (A) (A) (A) (A) (A) (A)
                 (A) (A) (A) (A) (A) (A) (A) (A) (A) (A) (A) (A)
                 (A) (A) (A) (A) (A) (A) (A) (A) (A) (A) (A) (A)
                 (A) (A) (A) (A) (A) (A) (A) (A) (A) (A) (A) (A)
                 (A) (A) (A) (A) (A) (A) (A) (A) (A) (A) (A) (A)
                 (A) (A) (A) (A) (A) (A) (A) (A) (A) (A) (A) (A)
                 (A) (A) (A) (A) (A) (A) (A) (A) (A) (A) (A) (A)
                 (A) (A) (A) (A) (A) (A) (A) (A) (A) (A) (A) (A)
                 (A) (A) (A) (A) (A) (A) (A) (A) (A) (A) (A) (A)
                 (A) (A) (A) (A) (A) (A) (A) (A) (A) (A) (A) (A)
                 (A) (A) (A) (A) (A) (A) (A) (A) (A) (A) (A) (A)
                 (A) (A) (A) (A) (A) (A) (A) (A) (A) (A) (A) (A)
                 (A) (A) (A) (A) (A) (A) (A) (A) (A) (A) (A) (A)
                 (A) (A) (A) (A) (A) (A) (A) (A) (A) (A) (A) (A)
                 (A) (A) (A) (A) (A) (A) (A) (A) (A) (A) (A) (A)
                 (A) (A) (A) (A) (A) (A) (A) (A) (A) (A) (A) (A)
                 (A) (A) (A) (A) (A) (A) (A) (A) (A) (A) (A) (A)
                 (A) (A) (A) (A) (A) (A) (A) (A) (A) (A) (A) (A)
                 (A) (A) (A) (A) (A) (A) (A) (A) (A) (A) (A) (A)
                 (A) (A) (A) (A) (A) (A) (A) (A) (A) (A) (A) (A)
                 (A) (A) (A) (A) (A) (A) (A) (A) (A) (A) (A) (A)
                 (A) (A) (A) (A) (A) (A) (A) (A) (A) (A) (A) (A)
[...]
   529. RY*(  13) C  25                  0.00001     0.77506   
   530. RY*(  14) C  25                  0.00000     2.71437   
   531. RY*(  15) C  25                  0.00000     1.79854   
   532. RY*(  16) C  25                  0.00000    20.21668   
   533. RY*(  17) C  25                  0.00000     1.59364   
   534. RY*(   1) C  26                  0.00602     1.10295   
   535. RY*(   2) C  26                  0.00214     1.27232   
   536. RY*(   3) C  26                  0.00099     0.46411   
   537. RY*(   4) C  26                  0.00055     1.65304   
   538. RY*(   5) C  26                  0.00037     0.83936   
   539. RY*(   6) C  26                  0.00035     0.86943   
   540. RY*(   7) C  26                  0.00011     2.98204   
   541. RY*(   8) C  26                  0.00007     2.94875   
   542. RY*(   9) C  26                  0.00004     2.91808   
   543. RY*(  10) C  26                  0.00001     2.16375   
   544. RY*(  11) C  26                  0.00001     1.58565   
   545. RY*(  12) C  26                  0.00001     1.95889   
   546. RY*(  13) C  26                  0.00000     1.59116   
   547. RY*(  14) C  26                  0.00000     2.56170   
   548. RY*(  15) C  26                  0.00000    19.56004   
   549. RY*(  16) C  26                  0.00000     2.51591   
   550. RY*(  17) C  26                  0.00000     0.38557   
   551. RY*(   1) C  27                  0.00587     1.05220   
   552. RY*(   2) C  27                  0.00212     1.30778   
   553. RY*(   3) C  27                  0.00083     0.54167   
   554. RY*(   4) C  27                  0.00061     1.59272   
   555. RY*(   5) C  27                  0.00044     0.97303   
   556. RY*(   6) C  27                  0.00017     1.47537   
   557. RY*(   7) C  27                  0.00011     3.13677   
   558. RY*(   8) C  27                  0.00005     2.85645   
   559. RY*(   9) C  27                  0.00006     1.59787   
   560. RY*(  10) C  27                  0.00002     3.39633   
   561. RY*(  11) C  27                  0.00001     0.83434   
   562. RY*(  12) C  27                  0.00001     2.59274   
   563. RY*(  13) C  27                  0.00001     0.72889   
   564. RY*(  14) C  27                  0.00000     2.60126   
   565. RY*(  15) C  27                  0.00000     1.67550   
   566. RY*(  16) C  27                  0.00000    19.42792   
   567. RY*(  17) C  27                  0.00000     1.59148   
   568. RY*(   1) C  28                  0.00547     1.13973   
   569. RY*(   2) C  28                  0.00202     1.09626   
   570. RY*(   3) C  28                  0.00092     0.80329   
   571. RY*(   4) C  28                  0.00080     0.82817   
   572. RY*(   5) C  28                  0.00059     1.51501   
   573. RY*(   6) C  28                  0.00027     1.51929   
   574. RY*(   7) C  28                  0.00015     2.31557   
   575. RY*(   8) C  28                  0.00009     2.85331   
   576. RY*(   9) C  28                  0.00007     1.55393   
   577. RY*(  10) C  28                  0.00006     1.82475   
   578. RY*(  11) C  28                  0.00004     1.49510   
   579. RY*(  12) C  28                  0.00001     1.70805   
   580. RY*(  13) C  28                  0.00002     1.87474   
   581. RY*(  14) C  28                  0.00001     1.89223   
   582. RY*(  15) C  28                  0.00000    20.49262   
   583. RY*(  16) C  28                  0.00000     2.40758   
   584. RY*(  17) C  28                  0.00000     2.68867   
   585. RY*(   1) O  29                  0.00255     0.63352   
   586. RY*(   2) O  29                  0.00211     0.61887   
   587. RY*(   3) O  29                  0.00031     0.79806   
   588. RY*(   4) O  29                  0.00009     1.48691   
   589. RY*(   5) O  29                  0.00005     2.00115   
   590. RY*(   6) O  29                  0.00004     2.86760   
   591. RY*(   7) O  29                  0.00001     0.96635   
   592. RY*(   8) O  29                  0.00001     1.02498   
   593. RY*(   9) O  29                  0.00000     3.74045   
   594. RY*(  10) O  29                  0.00000    49.58162   
   595. RY*(  11) O  29                  0.00000     5.07778   
   596. RY*(  12) O  29                  0.00000     5.58154   
   597. RY*(  13) O  29                  0.00000     2.86990   
   598. RY*(  14) O  29                  0.00001     3.15046   
   599. RY*(  15) O  29                  0.00001     2.66890   
   600. RY*(  16) O  29                  0.00000     2.88528   
   601. RY*(  17) O  29                  0.00000     3.29044   
   602. RY*(   1) H  30                  0.00135     0.94708   
   603. RY*(   2) H  30                  0.00027     1.72115   
   604. RY*(   3) H  30                  0.00019     1.96752   
   605. RY*(   4) H  30                  0.00011     1.83439   
   606. RY*(   5) H  30                  0.00011     1.28889   
   607. RY*(   6) H  30                  0.00008     2.25213   
   608. RY*(   1) H  31                  0.00233     0.57396   
   609. RY*(   2) H  31                  0.00024     2.00406   
   610. RY*(   3) H  31                  0.00019     0.67232   
   611. RY*(   4) H  31                  0.00019     2.24927   
   612. RY*(   5) H  31                  0.00013     2.44519   
   613. RY*(   6) H  31                  0.00011     2.06768   
   614. RY*(   1) H  32                  0.00116     0.50396   
   615. RY*(   2) H  32                  0.00039     1.69515   
   616. RY*(   3) H  32                  0.00025     1.90092   
   617. RY*(   4) H  32                  0.00011     1.97531   
   618. RY*(   5) H  32                  0.00007     0.74279   
   619. RY*(   6) H  32                  0.00004     2.60821   
   620. RY*(   1) H  33                  0.00078     0.96142   
   621. RY*(   2) H  33                  0.00022     1.79408   
   622. RY*(   3) H  33                  0.00017     1.82861   
   623. RY*(   4) H  33                  0.00012     1.88450   
   624. RY*(   5) H  33                  0.00005     0.36396   
   625. RY*(   6) H  33                  0.00004     2.48774   
   626. RY*(   1) H  34                  0.00090     0.71859   
   627. RY*(   2) H  34                  0.00021     2.28843   
   628. RY*(   3) H  34                  0.00015     1.20311   
   629. RY*(   4) H  34                  0.00015     1.52738   
   630. RY*(   5) H  34                  0.00005     1.39590   
   631. RY*(   6) H  34                  0.00003     2.16048   
   632. RY*(   1) H  35                  0.00111     0.64706   
   633. RY*(   2) H  35                  0.00022     1.58781   
   634. RY*(   3) H  35                  0.00020     2.20168   
   635. RY*(   4) H  35                  0.00010     1.70220   
   636. RY*(   5) H  35                  0.00005     0.64270   
   637. RY*(   6) H  35                  0.00004     2.47517   
   638. RY*(   1) H  36                  0.00146     0.85755   
   639. RY*(   2) H  36                  0.00069     1.70798   
   640. RY*(   3) H  36                  0.00040     1.65555   
   641. RY*(   4) H  36                  0.00021     2.04711   
   642. RY*(   5) H  36                  0.00012     1.23804   
   643. RY*(   6) H  36                  0.00006     2.46485   
   644. RY*(   1) H  37                  0.00177     1.71829   
   645. RY*(   2) H  37                  0.00127     1.82729   
   646. RY*(   3) H  37                  0.00070     1.67537   
   647. RY*(   4) H  37                  0.00025     1.31465   
   648. RY*(   5) H  37                  0.00012     0.42949   
   649. RY*(   6) H  37                  0.00001     2.46321   
   650. RY*(   1) H  38                  0.00082     1.08581   
   651. RY*(   2) H  38                  0.00023     1.87719   
   652. RY*(   3) H  38                  0.00019     1.64678   
   653. RY*(   4) H  38                  0.00013     2.01092   
   654. RY*(   5) H  38                  0.00004     2.49091   
   655. RY*(   1) H  39                  0.00150     0.46210   
   656. RY*(   2) H  39                  0.00031     2.36756   
   657. RY*(   3) H  39                  0.00018     1.66699   
   658. RY*(   4) H  39                  0.00013     1.70832   
   659. RY*(   5) H  39                  0.00007     0.80831   
   660. RY*(   6) H  39                  0.00004     2.38354   
   661. RY*(   1) H  40                  0.00188     0.58023   
   662. RY*(   2) H  40                  0.00033     2.33235   
   663. RY*(   3) H  40                  0.00018     1.64054   
   664. RY*(   4) H  40                  0.00012     2.02782   
   665. RY*(   5) H  40                  0.00004     2.62173   
   666. RY*(   6) H  40                  0.00004     0.34307   
   667. RY*(   1) H  41                  0.00099     1.36731   
   668. RY*(   2) H  41                  0.00023     1.57837   
   669. RY*(   3) H  41                  0.00019     1.43213   
   670. RY*(   4) H  41                  0.00014     1.88570   
   671. RY*(   5) H  41                  0.00005     2.52069   
   672. RY*(   6) H  41                  0.00006     0.77937   
   673. RY*(   1) H  42                  0.00136     0.46718   
   674. RY*(   2) H  42                  0.00031     2.40265   
   675. RY*(   3) H  42                  0.00019     1.63277   
   676. RY*(   4) H  42                  0.00013     1.99276   
   677. RY*(   5) H  42                  0.00005     0.27380   
   678. RY*(   6) H  42                  0.00004     2.63779   
   679. RY*(   1) H  43                  0.00084     0.65535   
   680. RY*(   2) H  43                  0.00020     2.32388   
   681. RY*(   3) H  43                  0.00019     1.60601   
   682. RY*(   4) H  43                  0.00011     1.96783   
   683. RY*(   5) H  43                  0.00004     2.46137   
   684. RY*(   6) H  43                  0.00002     0.21401   
   685. RY*(   1) H  44                  0.00076     0.67454   
   686. RY*(   2) H  44                  0.00020     1.59279   
   687. RY*(   3) H  44                  0.00019     2.34907   
   688. RY*(   4) H  44                  0.00011     1.96898   
   689. RY*(   5) H  44                  0.00003     2.45689   
   690. RY*(   6) H  44                  0.00001     0.18231   
   691. RY*(   1) H  45                  0.00084     0.65357   
   692. RY*(   2) H  45                  0.00020     2.32588   
   693. RY*(   3) H  45                  0.00019     1.60067   
   694. RY*(   4) H  45                  0.00011     1.96602   
   695. RY*(   5) H  45                  0.00004     2.47871   
   696. RY*(   6) H  45                  0.00002     0.19639   
   697. RY*(   1) H  46                  0.00139     0.46477   
   698. RY*(   2) H  46                  0.00033     2.36118   
   699. RY*(   3) H  46                  0.00019     1.65256   
   700. RY*(   4) H  46                  0.00013     1.99635   
   701. RY*(   5) H  46                  0.00006     0.82681   
   702. RY*(   6) H  46                  0.00004     2.10396   
   703. RY*(   1) H  47                  0.00149     0.08015   
   704. RY*(   2) H  47                  0.00137     0.61209   
   705. RY*(   3) H  47                  0.00065     0.68733   
   706. RY*(   4) H  47                  0.00039     1.52024   
   707. RY*(   5) H  47                  0.00006     0.37756   
   708. RY*(   6) H  47                  0.00001    -0.28799   
   709. BD*(   1) C   1 - C   2          0.02696     0.54331   
   710. BD*(   2) C   1 - C   2          0.39657    -0.00226  721(v),716(v),109(g),725(v)
                                                    724(v),727(r),194(v),143(v)
   711. BD*(   1) C   1 - C   6          0.01337     0.55082   
   712. BD*(   1) C   1 - H  32          0.01273     0.41206   
   713. BD*(   1) C   2 - C   3          0.02510     0.53957   
   714. BD*(   1) C   2 - N   7          0.02962     0.37767   
   715. BD*(   1) C   3 - C   4          0.01161     0.56163   
   716. BD*(   2) C   3 - C   4          0.32383     0.00457  710(v),721(v),160(g),144(g)
                                                    145(g)
   717. BD*(   1) C   3 - H  33          0.01234     0.41534   
   718. BD*(   1) C   4 - C   5          0.02458     0.53491   
   719. BD*(   1) C   4 - H  34          0.01185     0.41974   
   720. BD*(   1) C   5 - C   6          0.02677     0.53474   
   721. BD*(   2) C   5 - C   6          0.38576    -0.00289  710(v),716(v),196(g),703(r)
                                                    181(g),586(v),194(g)
   722. BD*(   1) C   5 - O  29          0.02391     0.32486   
   723. BD*(   1) C   6 - H  35          0.01307     0.40002   
   724. BD*(   1) N   7 - C   8          0.02735     0.46166   
   725. BD*(   1) N   7 - H  36          0.02289     0.36679   
   726. BD*(   1) C   8 - C   9          0.02682     0.59157   
   727. BD*(   2) C   8 - C   9          0.31096     0.00107  736(v),245(g),732(v),733(v)
                                                    229(g),311(v),710(r),209(v)
   728. BD*(   1) C   8 - C  10          0.03566     0.36080   
   729. BD*(   1) C   9 - C  11          0.07892     0.44153   
   730. BD*(   1) C   9 -Cl  13          0.02815     0.14712   
   731. BD*(   1) C  10 - O  12          0.02803     0.24820   
   732. BD*(   1) C  10 - C  15          0.05264     0.32315   
   733. BD*(   1) C  10 - H  30          0.02711     0.37523   
   734. BD*(   1) C  11 - O  12          0.12305     0.30656  731(g),728(v),278(g),732(v)
                                                    730(v),726(v),286(g),306(g)
   735. BD*(   1) C  11 - O  14          0.01281     0.63554   
   736. BD*(   2) C  11 - O  14          0.28891     0.01352  727(v),279(g),333(g),346(g)
   737. BD*(   1) C  15 - C  16          0.03647     0.39734   
   738. BD*(   1) C  15 - O  17          0.03143     0.27304   
   739. BD*(   1) C  15 - H  31          0.02367     0.37906   
   740. BD*(   1) C  16 - C  18          0.02254     0.56745   
   741. BD*(   2) C  16 - C  18          0.35828     0.02633  752(v),747(v),738(v),402(g)
                                                    732(v),469(v)
   742. BD*(   1) C  16 - C  22          0.02579     0.56601   
   743. BD*(   1) O  17 - H  37          0.00969     0.42237   
   744. BD*(   1) C  18 - C  19          0.01409     0.57588   
   745. BD*(   1) C  18 - H  38          0.01459     0.42888   
   746. BD*(   1) C  19 - C  20          0.02450     0.56021   
   747. BD*(   2) C  19 - C  20          0.35627     0.02812  752(v),741(v),757(v),419(g)
                                                    755(v),453(v)
   748. BD*(   1) C  19 - H  39          0.01396     0.43441   
   749. BD*(   1) C  20 - C  21          0.02497     0.54242   
   750. BD*(   1) C  20 - C  23          0.03163     0.45288   
   751. BD*(   1) C  21 - C  22          0.01541     0.56546   
   752. BD*(   2) C  21 - C  22          0.30933     0.02639  741(v),747(v),453(g),759(r)
                                                    469(g),470(g)
   753. BD*(   1) C  21 - H  40          0.01413     0.43827   
   754. BD*(   1) C  22 - H  41          0.01501     0.45139   
   755. BD*(   1) C  23 - C  24          0.02505     0.55239   
   756. BD*(   1) C  23 - C  28          0.02501     0.55054   
   757. BD*(   2) C  23 - C  28          0.36178     0.02956  764(v),759(v),747(v),570(g)
                                                    749(v)
   758. BD*(   1) C  24 - C  25          0.01512     0.57714   
   759. BD*(   2) C  24 - C  25          0.32360     0.02662  764(v),757(v),519(g),503(g)
                                                    752(r)
   760. BD*(   1) C  24 - H  42          0.01404     0.43922   
   761. BD*(   1) C  25 - C  26          0.01635     0.57438   
   762. BD*(   1) C  25 - H  43          0.01357     0.43983   
   763. BD*(   1) C  26 - C  27          0.01634     0.57435   
   764. BD*(   2) C  26 - C  27          0.33551     0.02751  759(v),757(v),536(g),553(g)
                                                    550(g)
   765. BD*(   1) C  26 - H  44          0.01364     0.44223   
   766. BD*(   1) C  27 - C  28          0.01512     0.57950   
   767. BD*(   1) C  27 - H  45          0.01356     2.11286   
   768. BD*(   1) C  28 - H  46          0.01405     2.17303   
   769. BD*(   1) O  29 - H  47          0.00710     2.62076   
       -------------------------------
              Total Lewis  206.60781  ( 97.4565%)
        Valence non-Lewis    4.95301  (  2.3363%)
        Rydberg non-Lewis    0.43918  (  0.2072%)
       -------------------------------
            Total unit  1  212.00000  (100.0000%)
           Charge unit  1    0.00000
 Leave Link  607 at Sun Jul 07 11:15:06 2019, MaxMem=   209715200 cpu:        39.0
 (Enter C:\G09W\l9999.exe)
 1|1|UNPC-CCSC-01038015|FOpt|RB3LYP|6-311++G(d,p)|C23H18Cl1N1O4|PERFIL|
 07-Jul-2019|0||#p opt b3lyp/6-311++g(d,p) pop=nbo geom=connectivity||9
 p.log||0,1|C,2.5205490222,2.0448886019,-1.2196532912|C,3.1486171642,1.
 6777176487,-0.0285759545|C,3.3013666295,2.6336989582,0.9822255884|C,2.
 8296364164,3.9279747366,0.811158178|C,2.1741568046,4.2800036771,-0.370
 9696672|C,2.0197945849,3.3338028399,-1.3848114545|N,3.6746108715,0.369
 0524241,0.1641797845|C,3.058607847,-0.8130017044,-0.0832712741|C,3.627
 8696944,-2.0406568906,-0.1105335566|C,1.5676436165,-0.9929899335,-0.29
 06021652|C,2.6250222589,-3.0669977704,-0.3468680967|O,1.4052087468,-2.
 4071989959,-0.4857193385|Cl,5.305418989,-2.3896067975,0.1256103733|O,2
 .7092577017,-4.2588817372,-0.4327997975|C,0.7091079102,-0.5290584683,0
 .9168135374|C,-0.7800306486,-0.4742468474,0.6156229066|O,1.0148118923,
 -1.3047761935,2.0697145635|C,-1.4983449948,0.6778541937,0.9488036411|C
 ,-2.8694050288,0.7605776022,0.7277736592|C,-3.5747055697,-0.3124683742
 ,0.1662415548|C,-2.8509753105,-1.4675572559,-0.1641954981|C,-1.4792234
 312,-1.5497291027,0.0530100346|C,-5.0381588056,-0.2277610303,-0.070857
 0553|C,-5.8840596572,0.3915057797,0.8615567313|C,-7.2560520341,0.47344
 93295,0.639196637|C,-7.8127591533,-0.0624856103,-0.5209491484|C,-6.984
 8554102,-0.681543067,-1.4560429806|C,-5.6128970768,-0.7635023586,-1.23
 30645157|O,1.7145533079,5.5620755776,-0.4755061998|H,1.2167196521,-0.4
 916595182,-1.1951524936|H,1.0337382557,0.4822227848,1.1680361964|H,2.4
 386051604,1.333051904,-2.0319413705|H,3.7845314377,2.353989765,1.91171
 92454|H,2.947194527,4.6714865202,1.5897729908|H,1.5287305233,3.6047058
 57,-2.3143657967|H,4.6415993462,0.3018305844,0.4534802032|H,0.69588863
 89,-2.2041251941,1.926135572|H,-0.9783783093,1.525388761,1.3839051981|
 H,-3.3941638968,1.6764663753,0.9748846375|H,-3.371080715,-2.3235045041
 ,-0.5789647905|H,-0.9532292727,-2.4571120083,-0.2175986475|H,-5.466581
 1374,0.7895000794,1.7795862976|H,-7.8922512159,0.9478889056,1.37816503
 95|H,-8.8810707443,0.0005319533,-0.6940287339|H,-7.4066249609,-1.09546
 22705,-2.3652672575|H,-4.9773306228,-1.2275323458,-1.9788024957|H,1.27
 77419968,5.6896631195,-1.3242769906||Version=IA32W-G09RevD.01|State=1-
 A|HF=-1703.4948436|RMSD=4.037e-009|RMSF=3.374e-006|Dipole=-0.6915214,2
 .7789943,-0.6775035|Quadrupole=7.8627168,-12.4144363,4.5517195,12.7663
 667,2.4043096,-3.5689045|PG=C01 [X(C23H18Cl1N1O4)]||@


 NO HUMAN INVESTIGATION CAN BECOME REAL SCIENCE
 WITHOUT GOING THROUGH MATHEMATICAL PEOPLE.
 -- LEONARDO DA VINCI, IN "PENSIERI" CA. 1492
 Job cpu time:       0 days 14 hours 41 minutes  7.0 seconds.
 File lengths (MBytes):  RWF=    350 Int=      0 D2E=      0 Chk=     46 Scr=      1
 Normal termination of Gaussian 09 at Sun Jul 07 11:15:06 2019.
