 Entering Link 1 = C:\G09W\l1.exe PID=     50452.
  
 Copyright (c) 1988,1990,1992,1993,1995,1998,2003,2009,2013,
            Gaussian, Inc.  All Rights Reserved.
  
 This is part of the Gaussian(R) 09 program.  It is based on
 the Gaussian(R) 03 system (copyright 2003, Gaussian, Inc.),
 the Gaussian(R) 98 system (copyright 1998, Gaussian, Inc.),
 the Gaussian(R) 94 system (copyright 1995, Gaussian, Inc.),
 the Gaussian 92(TM) system (copyright 1992, Gaussian, Inc.),
 the Gaussian 90(TM) system (copyright 1990, Gaussian, Inc.),
 the Gaussian 88(TM) system (copyright 1988, Gaussian, Inc.),
 the Gaussian 86(TM) system (copyright 1986, Carnegie Mellon
 University), and the Gaussian 82(TM) system (copyright 1983,
 Carnegie Mellon University). Gaussian is a federally registered
 trademark of Gaussian, Inc.
  
 This software contains proprietary and confidential information,
 including trade secrets, belonging to Gaussian, Inc.
  
 This software is provided under written license and may be
 used, copied, transmitted, or stored only in accord with that
 written license.
  
 The following legend is applicable only to US Government
 contracts under FAR:
  
                    RESTRICTED RIGHTS LEGEND
  
 Use, reproduction and disclosure by the US Government is
 subject to restrictions as set forth in subparagraphs (a)
 and (c) of the Commercial Computer Software - Restricted
 Rights clause in FAR 52.227-19.
  
 Gaussian, Inc.
 340 Quinnipiac St., Bldg. 40, Wallingford CT 06492
  
  
 ---------------------------------------------------------------
 Warning -- This program may not be used in any manner that
 competes with the business of Gaussian, Inc. or will provide
 assistance to any competitor of Gaussian, Inc.  The licensee
 of this program is prohibited from giving any competitor of
 Gaussian, Inc. access to this program.  By using this program,
 the user acknowledges that Gaussian, Inc. is engaged in the
 business of creating and licensing software in the field of
 computational chemistry and represents and warrants to the
 licensee that it is not a competitor of Gaussian, Inc. and that
 it will not use this program in any manner prohibited above.
 ---------------------------------------------------------------
  

 Cite this work as:
 Gaussian 09, Revision D.01,
 M. J. Frisch, G. W. Trucks, H. B. Schlegel, G. E. Scuseria, 
 M. A. Robb, J. R. Cheeseman, G. Scalmani, V. Barone, B. Mennucci, 
 G. A. Petersson, H. Nakatsuji, M. Caricato, X. Li, H. P. Hratchian, 
 A. F. Izmaylov, J. Bloino, G. Zheng, J. L. Sonnenberg, M. Hada, 
 M. Ehara, K. Toyota, R. Fukuda, J. Hasegawa, M. Ishida, T. Nakajima, 
 Y. Honda, O. Kitao, H. Nakai, T. Vreven, J. A. Montgomery, Jr., 
 J. E. Peralta, F. Ogliaro, M. Bearpark, J. J. Heyd, E. Brothers, 
 K. N. Kudin, V. N. Staroverov, T. Keith, R. Kobayashi, J. Normand, 
 K. Raghavachari, A. Rendell, J. C. Burant, S. S. Iyengar, J. Tomasi, 
 M. Cossi, N. Rega, J. M. Millam, M. Klene, J. E. Knox, J. B. Cross, 
 V. Bakken, C. Adamo, J. Jaramillo, R. Gomperts, R. E. Stratmann, 
 O. Yazyev, A. J. Austin, R. Cammi, C. Pomelli, J. W. Ochterski, 
 R. L. Martin, K. Morokuma, V. G. Zakrzewski, G. A. Voth, 
 P. Salvador, J. J. Dannenberg, S. Dapprich, A. D. Daniels, 
 O. Farkas, J. B. Foresman, J. V. Ortiz, J. Cioslowski, 
 and D. J. Fox, Gaussian, Inc., Wallingford CT, 2013.
 
 ******************************************
 Gaussian 09:  IA32W-G09RevD.01 24-Apr-2013
                07-Jul-2019 
 ******************************************
 %nprocshared=4
 Will use up to    4 processors via shared memory.
 %mem=1600MB
 ----------------------------------------------------
 #p opt b3lyp/6-311++g(d,p) pop=nbo geom=connectivity
 ----------------------------------------------------
 1/14=-1,18=20,19=15,26=3,38=1,57=2/1,3;
 2/9=110,12=2,17=6,18=5,40=1/2;
 3/5=4,6=6,7=1111,11=2,16=1,25=1,30=1,71=1,74=-5/1,2,3;
 4//1;
 5/5=2,38=5/2;
 6/7=2,8=2,9=2,10=2,28=1,40=1/1,7;
 7//1,2,3,16;
 1/14=-1,18=20,19=15,26=3/3(2);
 2/9=110/2;
 99//99;
 2/9=110/2;
 3/5=4,6=6,7=1111,11=2,16=1,25=1,30=1,71=1,74=-5/1,2,3;
 4/5=5,16=3,69=1/1;
 5/5=2,38=5/2;
 7//1,2,3,16;
 1/14=-1,18=20,19=15,26=3/3(-5);
 2/9=110/2;
 6/7=2,8=2,9=2,10=2,19=2,28=1,40=1/1,7;
 99/9=1/99;
 Leave Link    1 at Sun Jul 07 11:15:07 2019, MaxMem=   209715200 cpu:         1.0
 (Enter C:\G09W\l101.exe)
 ------
 9q.log
 ------
 Symbolic Z-matrix:
 Charge =  0 Multiplicity = 1
 C                     2.05496   2.48056  -1.2769 
 C                     2.51236   2.10169  -0.02531 
 C                     2.37773   2.9793    1.04131 
 C                     1.78624   4.21471   0.85349 
 C                     1.30056   4.59933  -0.39285 
 C                     1.44423   3.71227  -1.45099 
 N                     3.15624   0.84867   0.17926 
 C                     2.6467   -0.36504  -0.10691 
 C                     3.29984  -1.52281  -0.23007 
 C                     1.16856  -0.64879  -0.28964 
 C                     2.35552  -2.59875  -0.494 
 O                     1.12582  -2.03295  -0.56286 
 Br                    5.14086  -1.78989  -0.07222 
 O                     2.52493  -3.75711  -0.64184 
 C                     0.32247  -0.35003   0.96228 
 C                    -1.17096  -0.42567   0.68634 
 O                     0.73528  -1.16238   2.01963 
 C                     0.62265   5.93606  -0.57932 
 C                    -1.95001   0.71345   0.82554 
 C                    -3.31507   0.68033   0.59402 
 C                    -3.94594  -0.50028   0.22058 
 C                    -3.16194  -1.64388   0.08279 
 C                    -1.7989   -1.60911   0.30817 
 C                    -5.41528  -0.5424   -0.02628 
 C                    -6.3036    0.07332   0.85172 
 C                    -7.66826   0.03517   0.62206 
 C                    -8.17031  -0.61995  -0.49012 
 C                    -7.29693  -1.23674  -1.37049 
 C                    -5.93235  -1.19826  -1.1406 
 H                     0.76665  -0.117    -1.14173 
 H                     0.54716   0.66119   1.26918 
 H                     2.18893   1.82287  -2.11745 
 H                     2.73468   2.68671   2.01268 
 H                     1.69478   4.88524   1.69044 
 H                     1.09165   3.98775  -2.42954 
 H                     4.13785   0.86681   0.35029 
 H                     0.48687  -2.05855   1.85636 
 H                     0.63593   6.24204  -1.6188 
 H                    -0.41546   5.89136  -0.26142 
 H                     1.11125   6.70835   0.00443 
 H                    -1.4899    1.64291   1.11452 
 H                    -3.88937   1.58429   0.69122 
 H                    -3.62513  -2.57542  -0.18899 
 H                    -1.22727  -2.50952   0.17692 
 H                    -5.9263    0.56635   1.72998 
 H                    -8.33877   0.51044   1.31633 
 H                    -9.23062  -0.6503   -0.66838 
 H                    -7.67632  -1.74314  -2.24057 
 H                    -5.2625   -1.66435  -1.84116 
 
 NAtoms=     49 NQM=       49 NQMF=       0 NMMI=      0 NMMIF=      0
                NMic=       0 NMicF=      0.
                    Isotopes and Nuclear Properties:
 (Nuclear quadrupole moments (NQMom) in fm**2, nuclear magnetic moments (NMagM)
  in nuclear magnetons)

  Atom         1           2           3           4           5           6           7           8           9          10
 IAtWgt=          12          12          12          12          12          12          14          12          12          12
 AtmWgt=  12.0000000  12.0000000  12.0000000  12.0000000  12.0000000  12.0000000  14.0030740  12.0000000  12.0000000  12.0000000
 NucSpn=           0           0           0           0           0           0           2           0           0           0
 AtZEff=   0.0000000   0.0000000   0.0000000   0.0000000   0.0000000   0.0000000   0.0000000   0.0000000   0.0000000   0.0000000
 NQMom=    0.0000000   0.0000000   0.0000000   0.0000000   0.0000000   0.0000000   2.0440000   0.0000000   0.0000000   0.0000000
 NMagM=    0.0000000   0.0000000   0.0000000   0.0000000   0.0000000   0.0000000   0.4037610   0.0000000   0.0000000   0.0000000
 AtZNuc=   6.0000000   6.0000000   6.0000000   6.0000000   6.0000000   6.0000000   7.0000000   6.0000000   6.0000000   6.0000000

  Atom        11          12          13          14          15          16          17          18          19          20
 IAtWgt=          12          16          79          16          12          12          16          12          12          12
 AtmWgt=  12.0000000  15.9949146  78.9183361  15.9949146  12.0000000  12.0000000  15.9949146  12.0000000  12.0000000  12.0000000
 NucSpn=           0           0           3           0           0           0           0           0           0           0
 AtZEff=   0.0000000   0.0000000   0.0000000   0.0000000   0.0000000   0.0000000   0.0000000   0.0000000   0.0000000   0.0000000
 NQMom=    0.0000000   0.0000000  31.3000000   0.0000000   0.0000000   0.0000000   0.0000000   0.0000000   0.0000000   0.0000000
 NMagM=    0.0000000   0.0000000   2.1063990   0.0000000   0.0000000   0.0000000   0.0000000   0.0000000   0.0000000   0.0000000
 AtZNuc=   6.0000000   8.0000000  35.0000000   8.0000000   6.0000000   6.0000000   8.0000000   6.0000000   6.0000000   6.0000000

  Atom        21          22          23          24          25          26          27          28          29          30
 IAtWgt=          12          12          12          12          12          12          12          12          12           1
 AtmWgt=  12.0000000  12.0000000  12.0000000  12.0000000  12.0000000  12.0000000  12.0000000  12.0000000  12.0000000   1.0078250
 NucSpn=           0           0           0           0           0           0           0           0           0           1
 AtZEff=   0.0000000   0.0000000   0.0000000   0.0000000   0.0000000   0.0000000   0.0000000   0.0000000   0.0000000   0.0000000
 NQMom=    0.0000000   0.0000000   0.0000000   0.0000000   0.0000000   0.0000000   0.0000000   0.0000000   0.0000000   0.0000000
 NMagM=    0.0000000   0.0000000   0.0000000   0.0000000   0.0000000   0.0000000   0.0000000   0.0000000   0.0000000   2.7928460
 AtZNuc=   6.0000000   6.0000000   6.0000000   6.0000000   6.0000000   6.0000000   6.0000000   6.0000000   6.0000000   1.0000000

  Atom        31          32          33          34          35          36          37          38          39          40
 IAtWgt=           1           1           1           1           1           1           1           1           1           1
 AtmWgt=   1.0078250   1.0078250   1.0078250   1.0078250   1.0078250   1.0078250   1.0078250   1.0078250   1.0078250   1.0078250
 NucSpn=           1           1           1           1           1           1           1           1           1           1
 AtZEff=   0.0000000   0.0000000   0.0000000   0.0000000   0.0000000   0.0000000   0.0000000   0.0000000   0.0000000   0.0000000
 NQMom=    0.0000000   0.0000000   0.0000000   0.0000000   0.0000000   0.0000000   0.0000000   0.0000000   0.0000000   0.0000000
 NMagM=    2.7928460   2.7928460   2.7928460   2.7928460   2.7928460   2.7928460   2.7928460   2.7928460   2.7928460   2.7928460
 AtZNuc=   1.0000000   1.0000000   1.0000000   1.0000000   1.0000000   1.0000000   1.0000000   1.0000000   1.0000000   1.0000000

  Atom        41          42          43          44          45          46          47          48          49
 IAtWgt=           1           1           1           1           1           1           1           1           1
 AtmWgt=   1.0078250   1.0078250   1.0078250   1.0078250   1.0078250   1.0078250   1.0078250   1.0078250   1.0078250
 NucSpn=           1           1           1           1           1           1           1           1           1
 AtZEff=   0.0000000   0.0000000   0.0000000   0.0000000   0.0000000   0.0000000   0.0000000   0.0000000   0.0000000
 NQMom=    0.0000000   0.0000000   0.0000000   0.0000000   0.0000000   0.0000000   0.0000000   0.0000000   0.0000000
 NMagM=    2.7928460   2.7928460   2.7928460   2.7928460   2.7928460   2.7928460   2.7928460   2.7928460   2.7928460
 AtZNuc=   1.0000000   1.0000000   1.0000000   1.0000000   1.0000000   1.0000000   1.0000000   1.0000000   1.0000000
 Leave Link  101 at Sun Jul 07 11:15:07 2019, MaxMem=   209715200 cpu:         0.0
 (Enter C:\G09W\l103.exe)

 GradGradGradGradGradGradGradGradGradGradGradGradGradGradGradGradGradGrad
 Berny optimization.
 Initialization pass.
                           ----------------------------
                           !    Initial Parameters    !
                           ! (Angstroms and Degrees)  !
 --------------------------                            --------------------------
 ! Name  Definition              Value          Derivative Info.                !
 --------------------------------------------------------------------------------
 ! R1    R(1,2)                  1.3854         estimate D2E/DX2                !
 ! R2    R(1,6)                  1.3858         estimate D2E/DX2                !
 ! R3    R(1,32)                 1.0757         estimate D2E/DX2                !
 ! R4    R(2,3)                  1.3878         estimate D2E/DX2                !
 ! R5    R(2,7)                  1.4235         estimate D2E/DX2                !
 ! R6    R(3,4)                  1.3825         estimate D2E/DX2                !
 ! R7    R(3,33)                 1.0754         estimate D2E/DX2                !
 ! R8    R(4,5)                  1.3918         estimate D2E/DX2                !
 ! R9    R(4,34)                 1.0763         estimate D2E/DX2                !
 ! R10   R(5,6)                  1.3882         estimate D2E/DX2                !
 ! R11   R(5,18)                 1.5104         estimate D2E/DX2                !
 ! R12   R(6,35)                 1.076          estimate D2E/DX2                !
 ! R13   R(7,8)                  1.3471         estimate D2E/DX2                !
 ! R14   R(7,36)                 0.9966         estimate D2E/DX2                !
 ! R15   R(8,9)                  1.335          estimate D2E/DX2                !
 ! R16   R(8,10)                 1.5162         estimate D2E/DX2                !
 ! R17   R(9,11)                 1.4557         estimate D2E/DX2                !
 ! R18   R(9,13)                 1.867          estimate D2E/DX2                !
 ! R19   R(10,12)                1.4115         estimate D2E/DX2                !
 ! R20   R(10,15)                1.5403         estimate D2E/DX2                !
 ! R21   R(10,30)                1.0818         estimate D2E/DX2                !
 ! R22   R(11,12)                1.3554         estimate D2E/DX2                !
 ! R23   R(11,14)                1.18           estimate D2E/DX2                !
 ! R24   R(15,16)                1.5206         estimate D2E/DX2                !
 ! R25   R(15,17)                1.3958         estimate D2E/DX2                !
 ! R26   R(15,31)                1.0804         estimate D2E/DX2                !
 ! R27   R(16,19)                1.387          estimate D2E/DX2                !
 ! R28   R(16,23)                1.3921         estimate D2E/DX2                !
 ! R29   R(17,37)                0.9442         estimate D2E/DX2                !
 ! R30   R(18,38)                1.0837         estimate D2E/DX2                !
 ! R31   R(18,39)                1.0866         estimate D2E/DX2                !
 ! R32   R(18,40)                1.0844         estimate D2E/DX2                !
 ! R33   R(19,20)                1.3849         estimate D2E/DX2                !
 ! R34   R(19,41)                1.0766         estimate D2E/DX2                !
 ! R35   R(20,21)                1.3897         estimate D2E/DX2                !
 ! R36   R(20,42)                1.0754         estimate D2E/DX2                !
 ! R37   R(21,22)                1.3934         estimate D2E/DX2                !
 ! R38   R(21,24)                1.4905         estimate D2E/DX2                !
 ! R39   R(22,23)                1.382          estimate D2E/DX2                !
 ! R40   R(22,43)                1.0753         estimate D2E/DX2                !
 ! R41   R(23,44)                1.0746         estimate D2E/DX2                !
 ! R42   R(24,25)                1.3925         estimate D2E/DX2                !
 ! R43   R(24,29)                1.3926         estimate D2E/DX2                !
 ! R44   R(25,26)                1.3844         estimate D2E/DX2                !
 ! R45   R(25,45)                1.0755         estimate D2E/DX2                !
 ! R46   R(26,27)                1.385          estimate D2E/DX2                !
 ! R47   R(26,46)                1.0759         estimate D2E/DX2                !
 ! R48   R(27,28)                1.385          estimate D2E/DX2                !
 ! R49   R(27,47)                1.0756         estimate D2E/DX2                !
 ! R50   R(28,29)                1.3843         estimate D2E/DX2                !
 ! R51   R(28,48)                1.0758         estimate D2E/DX2                !
 ! R52   R(29,49)                1.0755         estimate D2E/DX2                !
 ! A1    A(2,1,6)              120.1377         estimate D2E/DX2                !
 ! A2    A(2,1,32)             119.8436         estimate D2E/DX2                !
 ! A3    A(6,1,32)             120.0115         estimate D2E/DX2                !
 ! A4    A(1,2,3)              119.2994         estimate D2E/DX2                !
 ! A5    A(1,2,7)              121.3247         estimate D2E/DX2                !
 ! A6    A(3,2,7)              119.3443         estimate D2E/DX2                !
 ! A7    A(2,3,4)              120.1441         estimate D2E/DX2                !
 ! A8    A(2,3,33)             119.3361         estimate D2E/DX2                !
 ! A9    A(4,3,33)             120.5195         estimate D2E/DX2                !
 ! A10   A(3,4,5)              121.1902         estimate D2E/DX2                !
 ! A11   A(3,4,34)             119.1705         estimate D2E/DX2                !
 ! A12   A(5,4,34)             119.6376         estimate D2E/DX2                !
 ! A13   A(4,5,6)              118.0253         estimate D2E/DX2                !
 ! A14   A(4,5,18)             120.7807         estimate D2E/DX2                !
 ! A15   A(6,5,18)             121.1896         estimate D2E/DX2                !
 ! A16   A(1,6,5)              121.1843         estimate D2E/DX2                !
 ! A17   A(1,6,35)             119.0922         estimate D2E/DX2                !
 ! A18   A(5,6,35)             119.7156         estimate D2E/DX2                !
 ! A19   A(2,7,8)              126.2598         estimate D2E/DX2                !
 ! A20   A(2,7,36)             117.0115         estimate D2E/DX2                !
 ! A21   A(8,7,36)             115.1779         estimate D2E/DX2                !
 ! A22   A(7,8,9)              128.0191         estimate D2E/DX2                !
 ! A23   A(7,8,10)             124.2627         estimate D2E/DX2                !
 ! A24   A(9,8,10)             107.6712         estimate D2E/DX2                !
 ! A25   A(8,9,11)             109.8982         estimate D2E/DX2                !
 ! A26   A(8,9,13)             126.7779         estimate D2E/DX2                !
 ! A27   A(11,9,13)            123.3178         estimate D2E/DX2                !
 ! A28   A(8,10,12)            103.6724         estimate D2E/DX2                !
 ! A29   A(8,10,15)            113.6579         estimate D2E/DX2                !
 ! A30   A(8,10,30)            111.4148         estimate D2E/DX2                !
 ! A31   A(12,10,15)           109.3238         estimate D2E/DX2                !
 ! A32   A(12,10,30)           108.5617         estimate D2E/DX2                !
 ! A33   A(15,10,30)           109.9227         estimate D2E/DX2                !
 ! A34   A(9,11,12)            106.8114         estimate D2E/DX2                !
 ! A35   A(9,11,14)            130.932          estimate D2E/DX2                !
 ! A36   A(12,11,14)           122.2554         estimate D2E/DX2                !
 ! A37   A(10,12,11)           111.8424         estimate D2E/DX2                !
 ! A38   A(10,15,16)           112.48           estimate D2E/DX2                !
 ! A39   A(10,15,17)           109.8986         estimate D2E/DX2                !
 ! A40   A(10,15,31)           107.3493         estimate D2E/DX2                !
 ! A41   A(16,15,17)           113.5142         estimate D2E/DX2                !
 ! A42   A(16,15,31)           107.5992         estimate D2E/DX2                !
 ! A43   A(17,15,31)           105.5477         estimate D2E/DX2                !
 ! A44   A(15,16,19)           119.51           estimate D2E/DX2                !
 ! A45   A(15,16,23)           122.3177         estimate D2E/DX2                !
 ! A46   A(19,16,23)           118.169          estimate D2E/DX2                !
 ! A47   A(15,17,37)           110.0958         estimate D2E/DX2                !
 ! A48   A(5,18,38)            111.2739         estimate D2E/DX2                !
 ! A49   A(5,18,39)            110.8718         estimate D2E/DX2                !
 ! A50   A(5,18,40)            111.1994         estimate D2E/DX2                !
 ! A51   A(38,18,39)           107.6958         estimate D2E/DX2                !
 ! A52   A(38,18,40)           108.0441         estimate D2E/DX2                !
 ! A53   A(39,18,40)           107.5937         estimate D2E/DX2                !
 ! A54   A(16,19,20)           121.1439         estimate D2E/DX2                !
 ! A55   A(16,19,41)           119.7291         estimate D2E/DX2                !
 ! A56   A(20,19,41)           119.1266         estimate D2E/DX2                !
 ! A57   A(19,20,21)           120.842          estimate D2E/DX2                !
 ! A58   A(19,20,42)           119.418          estimate D2E/DX2                !
 ! A59   A(21,20,42)           119.7339         estimate D2E/DX2                !
 ! A60   A(20,21,22)           117.9309         estimate D2E/DX2                !
 ! A61   A(20,21,24)           121.0653         estimate D2E/DX2                !
 ! A62   A(22,21,24)           121.0037         estimate D2E/DX2                !
 ! A63   A(21,22,23)           121.2095         estimate D2E/DX2                !
 ! A64   A(21,22,43)           119.5823         estimate D2E/DX2                !
 ! A65   A(23,22,43)           119.2014         estimate D2E/DX2                !
 ! A66   A(16,23,22)           120.7037         estimate D2E/DX2                !
 ! A67   A(16,23,44)           120.3688         estimate D2E/DX2                !
 ! A68   A(22,23,44)           118.9245         estimate D2E/DX2                !
 ! A69   A(21,24,25)           120.7931         estimate D2E/DX2                !
 ! A70   A(21,24,29)           120.7885         estimate D2E/DX2                !
 ! A71   A(25,24,29)           118.4184         estimate D2E/DX2                !
 ! A72   A(24,25,26)           120.8011         estimate D2E/DX2                !
 ! A73   A(24,25,45)           119.5882         estimate D2E/DX2                !
 ! A74   A(26,25,45)           119.5976         estimate D2E/DX2                !
 ! A75   A(25,26,27)           120.2373         estimate D2E/DX2                !
 ! A76   A(25,26,46)           119.6784         estimate D2E/DX2                !
 ! A77   A(27,26,46)           120.0825         estimate D2E/DX2                !
 ! A78   A(26,27,28)           119.5051         estimate D2E/DX2                !
 ! A79   A(26,27,47)           120.2492         estimate D2E/DX2                !
 ! A80   A(28,27,47)           120.2456         estimate D2E/DX2                !
 ! A81   A(27,28,29)           120.2415         estimate D2E/DX2                !
 ! A82   A(27,28,48)           120.0871         estimate D2E/DX2                !
 ! A83   A(29,28,48)           119.6702         estimate D2E/DX2                !
 ! A84   A(24,29,28)           120.7965         estimate D2E/DX2                !
 ! A85   A(24,29,49)           119.6086         estimate D2E/DX2                !
 ! A86   A(28,29,49)           119.5844         estimate D2E/DX2                !
 ! D1    D(6,1,2,3)             -1.3736         estimate D2E/DX2                !
 ! D2    D(6,1,2,7)           -179.3129         estimate D2E/DX2                !
 ! D3    D(32,1,2,3)           177.6501         estimate D2E/DX2                !
 ! D4    D(32,1,2,7)            -0.2892         estimate D2E/DX2                !
 ! D5    D(2,1,6,5)              1.2819         estimate D2E/DX2                !
 ! D6    D(2,1,6,35)          -179.7512         estimate D2E/DX2                !
 ! D7    D(32,1,6,5)          -177.7402         estimate D2E/DX2                !
 ! D8    D(32,1,6,35)            1.2267         estimate D2E/DX2                !
 ! D9    D(1,2,3,4)              0.3434         estimate D2E/DX2                !
 ! D10   D(1,2,3,33)          -179.8576         estimate D2E/DX2                !
 ! D11   D(7,2,3,4)            178.324          estimate D2E/DX2                !
 ! D12   D(7,2,3,33)            -1.877          estimate D2E/DX2                !
 ! D13   D(1,2,7,8)            -56.7281         estimate D2E/DX2                !
 ! D14   D(1,2,7,36)           108.3157         estimate D2E/DX2                !
 ! D15   D(3,2,7,8)            125.3335         estimate D2E/DX2                !
 ! D16   D(3,2,7,36)           -69.6227         estimate D2E/DX2                !
 ! D17   D(2,3,4,5)              0.8121         estimate D2E/DX2                !
 ! D18   D(2,3,4,34)          -179.6641         estimate D2E/DX2                !
 ! D19   D(33,3,4,5)          -178.9845         estimate D2E/DX2                !
 ! D20   D(33,3,4,34)            0.5393         estimate D2E/DX2                !
 ! D21   D(3,4,5,6)             -0.9091         estimate D2E/DX2                !
 ! D22   D(3,4,5,18)           178.3398         estimate D2E/DX2                !
 ! D23   D(34,4,5,6)           179.5693         estimate D2E/DX2                !
 ! D24   D(34,4,5,18)           -1.1818         estimate D2E/DX2                !
 ! D25   D(4,5,6,1)             -0.1366         estimate D2E/DX2                !
 ! D26   D(4,5,6,35)          -179.0972         estimate D2E/DX2                !
 ! D27   D(18,5,6,1)          -179.3823         estimate D2E/DX2                !
 ! D28   D(18,5,6,35)            1.6571         estimate D2E/DX2                !
 ! D29   D(4,5,18,38)          158.9244         estimate D2E/DX2                !
 ! D30   D(4,5,18,39)          -81.2368         estimate D2E/DX2                !
 ! D31   D(4,5,18,40)           38.424          estimate D2E/DX2                !
 ! D32   D(6,5,18,38)          -21.8506         estimate D2E/DX2                !
 ! D33   D(6,5,18,39)           97.9882         estimate D2E/DX2                !
 ! D34   D(6,5,18,40)         -142.351          estimate D2E/DX2                !
 ! D35   D(2,7,8,9)            162.8842         estimate D2E/DX2                !
 ! D36   D(2,7,8,10)           -19.9239         estimate D2E/DX2                !
 ! D37   D(36,7,8,9)            -2.3975         estimate D2E/DX2                !
 ! D38   D(36,7,8,10)          174.7944         estimate D2E/DX2                !
 ! D39   D(7,8,9,11)           177.7714         estimate D2E/DX2                !
 ! D40   D(7,8,9,13)            -1.3477         estimate D2E/DX2                !
 ! D41   D(10,8,9,11)            0.2069         estimate D2E/DX2                !
 ! D42   D(10,8,9,13)         -178.9123         estimate D2E/DX2                !
 ! D43   D(7,8,10,12)         -179.7039         estimate D2E/DX2                !
 ! D44   D(7,8,10,15)          -61.1245         estimate D2E/DX2                !
 ! D45   D(7,8,10,30)           63.7249         estimate D2E/DX2                !
 ! D46   D(9,8,10,12)           -2.0253         estimate D2E/DX2                !
 ! D47   D(9,8,10,15)          116.5541         estimate D2E/DX2                !
 ! D48   D(9,8,10,30)         -118.5965         estimate D2E/DX2                !
 ! D49   D(8,9,11,12)            1.7934         estimate D2E/DX2                !
 ! D50   D(8,9,11,14)         -178.6079         estimate D2E/DX2                !
 ! D51   D(13,9,11,12)        -179.0509         estimate D2E/DX2                !
 ! D52   D(13,9,11,14)           0.5478         estimate D2E/DX2                !
 ! D53   D(8,10,12,11)           3.2527         estimate D2E/DX2                !
 ! D54   D(15,10,12,11)       -118.2766         estimate D2E/DX2                !
 ! D55   D(30,10,12,11)        121.8121         estimate D2E/DX2                !
 ! D56   D(8,10,15,16)         170.7052         estimate D2E/DX2                !
 ! D57   D(8,10,15,17)         -61.7786         estimate D2E/DX2                !
 ! D58   D(8,10,15,31)          52.5348         estimate D2E/DX2                !
 ! D59   D(12,10,15,16)        -74.012          estimate D2E/DX2                !
 ! D60   D(12,10,15,17)         53.5042         estimate D2E/DX2                !
 ! D61   D(12,10,15,31)        167.8176         estimate D2E/DX2                !
 ! D62   D(30,10,15,16)         45.0592         estimate D2E/DX2                !
 ! D63   D(30,10,15,17)        172.5754         estimate D2E/DX2                !
 ! D64   D(30,10,15,31)        -73.1112         estimate D2E/DX2                !
 ! D65   D(9,11,12,10)          -3.2129         estimate D2E/DX2                !
 ! D66   D(14,11,12,10)        177.1457         estimate D2E/DX2                !
 ! D67   D(10,15,16,19)       -116.6794         estimate D2E/DX2                !
 ! D68   D(10,15,16,23)         63.9987         estimate D2E/DX2                !
 ! D69   D(17,15,16,19)        117.7468         estimate D2E/DX2                !
 ! D70   D(17,15,16,23)        -61.5751         estimate D2E/DX2                !
 ! D71   D(31,15,16,19)          1.3437         estimate D2E/DX2                !
 ! D72   D(31,15,16,23)       -177.9783         estimate D2E/DX2                !
 ! D73   D(10,15,17,37)        -70.3413         estimate D2E/DX2                !
 ! D74   D(16,15,17,37)         56.5973         estimate D2E/DX2                !
 ! D75   D(31,15,17,37)        174.1986         estimate D2E/DX2                !
 ! D76   D(15,16,19,20)       -179.442          estimate D2E/DX2                !
 ! D77   D(15,16,19,41)          0.8067         estimate D2E/DX2                !
 ! D78   D(23,16,19,20)         -0.092          estimate D2E/DX2                !
 ! D79   D(23,16,19,41)       -179.8433         estimate D2E/DX2                !
 ! D80   D(15,16,23,22)        179.1349         estimate D2E/DX2                !
 ! D81   D(15,16,23,44)         -1.5044         estimate D2E/DX2                !
 ! D82   D(19,16,23,22)         -0.1957         estimate D2E/DX2                !
 ! D83   D(19,16,23,44)        179.165          estimate D2E/DX2                !
 ! D84   D(16,19,20,21)          0.3048         estimate D2E/DX2                !
 ! D85   D(16,19,20,42)       -178.7963         estimate D2E/DX2                !
 ! D86   D(41,19,20,21)       -179.9424         estimate D2E/DX2                !
 ! D87   D(41,19,20,42)          0.9564         estimate D2E/DX2                !
 ! D88   D(19,20,21,22)         -0.2214         estimate D2E/DX2                !
 ! D89   D(19,20,21,24)        179.8346         estimate D2E/DX2                !
 ! D90   D(42,20,21,22)        178.8769         estimate D2E/DX2                !
 ! D91   D(42,20,21,24)         -1.0671         estimate D2E/DX2                !
 ! D92   D(20,21,22,23)         -0.0665         estimate D2E/DX2                !
 ! D93   D(20,21,22,43)        178.9778         estimate D2E/DX2                !
 ! D94   D(24,21,22,23)        179.8776         estimate D2E/DX2                !
 ! D95   D(24,21,22,43)         -1.0782         estimate D2E/DX2                !
 ! D96   D(20,21,24,25)        -45.0734         estimate D2E/DX2                !
 ! D97   D(20,21,24,29)        134.9155         estimate D2E/DX2                !
 ! D98   D(22,21,24,25)        134.9843         estimate D2E/DX2                !
 ! D99   D(22,21,24,29)        -45.0268         estimate D2E/DX2                !
 ! D100  D(21,22,23,16)          0.278          estimate D2E/DX2                !
 ! D101  D(21,22,23,44)       -179.0917         estimate D2E/DX2                !
 ! D102  D(43,22,23,16)       -178.7698         estimate D2E/DX2                !
 ! D103  D(43,22,23,44)          1.8604         estimate D2E/DX2                !
 ! D104  D(21,24,25,26)        179.9507         estimate D2E/DX2                !
 ! D105  D(21,24,25,45)         -1.3695         estimate D2E/DX2                !
 ! D106  D(29,24,25,26)         -0.0385         estimate D2E/DX2                !
 ! D107  D(29,24,25,45)        178.6414         estimate D2E/DX2                !
 ! D108  D(21,24,29,28)       -179.9582         estimate D2E/DX2                !
 ! D109  D(21,24,29,49)         -1.1416         estimate D2E/DX2                !
 ! D110  D(25,24,29,28)          0.031          estimate D2E/DX2                !
 ! D111  D(25,24,29,49)        178.8475         estimate D2E/DX2                !
 ! D112  D(24,25,26,27)          0.0164         estimate D2E/DX2                !
 ! D113  D(24,25,26,46)        179.5256         estimate D2E/DX2                !
 ! D114  D(45,25,26,27)       -178.6633         estimate D2E/DX2                !
 ! D115  D(45,25,26,46)          0.8459         estimate D2E/DX2                !
 ! D116  D(25,26,27,28)          0.0138         estimate D2E/DX2                !
 ! D117  D(25,26,27,47)        179.9569         estimate D2E/DX2                !
 ! D118  D(46,26,27,28)       -179.4933         estimate D2E/DX2                !
 ! D119  D(46,26,27,47)          0.4498         estimate D2E/DX2                !
 ! D120  D(26,27,28,29)         -0.0213         estimate D2E/DX2                !
 ! D121  D(26,27,28,48)       -179.6281         estimate D2E/DX2                !
 ! D122  D(47,27,28,29)       -179.9644         estimate D2E/DX2                !
 ! D123  D(47,27,28,48)          0.4287         estimate D2E/DX2                !
 ! D124  D(27,28,29,24)         -0.0014         estimate D2E/DX2                !
 ! D125  D(27,28,29,49)       -178.8183         estimate D2E/DX2                !
 ! D126  D(48,28,29,24)        179.6071         estimate D2E/DX2                !
 ! D127  D(48,28,29,49)          0.7903         estimate D2E/DX2                !
 --------------------------------------------------------------------------------
 Trust Radius=3.00D-01 FncErr=1.00D-07 GrdErr=1.00D-06
 Number of steps in this run=    275 maximum allowed number of steps=    294.
 GradGradGradGradGradGradGradGradGradGradGradGradGradGradGradGradGradGrad

 Leave Link  103 at Sun Jul 07 11:15:07 2019, MaxMem=   209715200 cpu:         0.0
 (Enter C:\G09W\l202.exe)
                          Input orientation:                          
 ---------------------------------------------------------------------
 Center     Atomic      Atomic             Coordinates (Angstroms)
 Number     Number       Type             X           Y           Z
 ---------------------------------------------------------------------
      1          6           0        2.054958    2.480564   -1.276896
      2          6           0        2.512359    2.101688   -0.025306
      3          6           0        2.377725    2.979304    1.041313
      4          6           0        1.786240    4.214710    0.853492
      5          6           0        1.300558    4.599325   -0.392846
      6          6           0        1.444228    3.712272   -1.450988
      7          7           0        3.156239    0.848674    0.179262
      8          6           0        2.646697   -0.365042   -0.106909
      9          6           0        3.299843   -1.522808   -0.230071
     10          6           0        1.168562   -0.648793   -0.289636
     11          6           0        2.355522   -2.598749   -0.494003
     12          8           0        1.125822   -2.032949   -0.562857
     13         35           0        5.140865   -1.789889   -0.072222
     14          8           0        2.524932   -3.757113   -0.641837
     15          6           0        0.322474   -0.350029    0.962277
     16          6           0       -1.170957   -0.425666    0.686344
     17          8           0        0.735282   -1.162377    2.019631
     18          6           0        0.622645    5.936055   -0.579319
     19          6           0       -1.950014    0.713446    0.825541
     20          6           0       -3.315066    0.680331    0.594020
     21          6           0       -3.945936   -0.500281    0.220583
     22          6           0       -3.161943   -1.643881    0.082788
     23          6           0       -1.798900   -1.609106    0.308172
     24          6           0       -5.415275   -0.542400   -0.026277
     25          6           0       -6.303601    0.073317    0.851722
     26          6           0       -7.668261    0.035168    0.622064
     27          6           0       -8.170307   -0.619947   -0.490120
     28          6           0       -7.296929   -1.236742   -1.370492
     29          6           0       -5.932349   -1.198256   -1.140598
     30          1           0        0.766645   -0.117001   -1.141727
     31          1           0        0.547158    0.661191    1.269175
     32          1           0        2.188931    1.822867   -2.117453
     33          1           0        2.734683    2.686706    2.012678
     34          1           0        1.694778    4.885241    1.690440
     35          1           0        1.091645    3.987747   -2.429540
     36          1           0        4.137850    0.866805    0.350286
     37          1           0        0.486870   -2.058546    1.856363
     38          1           0        0.635929    6.242039   -1.618803
     39          1           0       -0.415457    5.891356   -0.261416
     40          1           0        1.111247    6.708348    0.004427
     41          1           0       -1.489903    1.642910    1.114522
     42          1           0       -3.889374    1.584289    0.691216
     43          1           0       -3.625125   -2.575424   -0.188986
     44          1           0       -1.227269   -2.509523    0.176917
     45          1           0       -5.926300    0.566347    1.729977
     46          1           0       -8.338773    0.510442    1.316330
     47          1           0       -9.230621   -0.650298   -0.668376
     48          1           0       -7.676319   -1.743142   -2.240565
     49          1           0       -5.262497   -1.664354   -1.841164
 ---------------------------------------------------------------------
                    Distance matrix (angstroms):
                    1          2          3          4          5
     1  C    0.000000
     2  C    1.385366   0.000000
     3  C    2.393118   1.387808   0.000000
     4  C    2.760077   2.400916   1.382519   0.000000
     5  C    2.416570   2.800310   2.416934   1.391824   0.000000
     6  C    1.385786   2.401552   2.760475   2.383284   1.388225
     7  N    2.448730   1.423543   2.426685   3.696171   4.223534
     8  C    3.133129   2.471733   3.546182   4.757824   5.151581
     9  C    4.321177   3.714705   4.768200   6.031933   6.442371
    10  C    3.399008   3.072590   4.049270   5.034077   5.250792
    11  C    5.148075   4.726350   5.785531   6.968719   7.275675
    12  O    4.663148   4.393935   5.409557   6.440143   6.636753
    13  Br   5.404704   4.696341   5.623176   6.940149   7.461422
    14  O    6.287511   5.891164   6.945069   8.144424   8.449328
    15  C    4.003455   3.432467   3.913408   4.794923   5.223898
    16  C    4.765187   4.523359   4.930818   5.505092   5.702944
    17  O    5.087205   4.241921   4.561606   5.601558   6.271905
    18  C    3.805069   4.310489   3.801201   2.523872   1.510359
    19  C    4.856207   4.750150   4.889785   5.120471   5.210637
    20  C    5.964757   6.030149   6.155747   6.211480   6.134852
    21  C    6.865756   6.967085   7.264282   7.449131   7.342205
    22  C    6.787919   6.799903   7.278773   7.707243   7.688808
    23  C    5.838670   5.698083   6.247815   6.860571   6.974431
    24  C    8.155166   8.356948   8.618178   8.675593   8.466057
    25  C    8.954963   9.088708   9.156753   9.088271   8.936271
    26  C   10.204264  10.408392  10.476905  10.339716  10.114410
    27  C   10.713927  11.033708  11.249928  11.149530  10.814229
    28  C   10.064041  10.448769  10.825469  10.824435  10.437061
    29  C    8.794849   9.134911   9.553537   9.636037   9.299786
    30  H    2.902648   3.035868   4.116837   4.876904   4.805166
    31  H    3.473623   2.759117   2.962523   3.786240   4.340372
    32  H    1.075663   2.135281   3.369094   3.835308   3.387063
    33  H    3.365385   2.131913   1.075445   2.139638   3.391367
    34  H    3.836311   3.370518   2.126118   1.076317   2.139448
    35  H    2.127948   3.369865   3.836376   3.363372   2.136772
    36  H    3.096834   2.075627   2.835174   4.122106   4.747018
    37  H    5.734085   4.995081   5.442387   6.484432   7.074481
    38  H    4.034754   4.816921   4.555822   3.397870   2.154811
    39  H    4.332165   4.794730   4.240167   2.983560   2.152051
    40  H    4.517359   4.815113   4.072452   2.719330   2.154447
    41  H    4.357360   4.186620   4.092659   4.173177   4.335807
    42  H    6.325493   6.462452   6.430021   6.257639   6.099264
    43  H    7.681791   7.718217   8.270601   8.745030   8.705225
    44  H    6.147158   5.940453   6.623472   7.399615   7.566390
    45  H    8.741052   8.754956   8.674875   8.576832   8.543932
    46  H   10.892008  11.048942  11.000647  10.791279  10.609286
    47  H   11.727612  12.078267  12.282131  12.139012  11.770310
    48  H   10.652047  11.113022  11.582574  11.602121  11.145639
    49  H    8.428754   8.827729   9.393893   9.566047   9.187219
                    6          7          8          9         10
     6  C    0.000000
     7  N    3.713339   0.000000
     8  C    4.458360   1.347083   0.000000
     9  C    5.686828   2.410830   1.334987   0.000000
    10  C    4.521462   2.532416   1.516175   2.304302   0.000000
    11  C    6.447888   3.602660   2.285623   1.455696   2.291935
    12  O    5.822175   3.602372   2.302795   2.257733   1.411511
    13  Br   6.770517   3.311193   2.872676   1.866979   4.138666
    14  O    7.590412   4.720808   3.436149   2.400449   3.409610
    15  C    4.856384   3.174937   2.558397   3.414942   1.540263
    16  C    5.341340   4.539350   3.899668   4.693782   2.544734
    17  O    6.025778   3.645863   2.968404   3.430458   2.405039
    18  C    2.525869   5.733759   6.635042   7.932465   6.613786
    19  C    5.069164   5.148765   4.812728   5.803115   3.581177
    20  C    6.002133   6.486767   6.093170   7.020681   4.759237
    21  C    7.042274   7.229265   6.602147   7.331437   5.142030
    22  C    7.228946   6.792758   5.950774   6.470488   4.458943
    23  C    6.475306   5.532694   4.635010   5.127800   3.175753
    24  C    8.196634   8.686091   8.064326   8.772458   6.589961
    25  C    8.864159   9.515354   9.012157   9.795102   7.593244
    26  C   10.042713  10.864054  10.348426  11.110928   8.910019
    27  C   10.589177  11.440960  10.826791  11.508567   9.341065
    28  C   10.045250  10.771231  10.061421  10.661800   8.554442
    29  C    8.866990   9.409271   8.681174   9.282659   7.172795
    30  H    3.901037   2.896153   2.160317   3.037187   1.081850
    31  H    4.184868   2.833790   2.711978   3.820323   2.128871
    32  H    2.137431   2.675750   3.006457   3.998734   3.239008
    33  H    3.835889   2.630111   3.716659   4.803055   4.344990
    34  H    3.362618   4.551198   5.630460   6.879512   5.901113
    35  H    1.075995   4.574076   5.172966   6.330878   5.107114
    36  H    4.312409   0.996563   1.987464   2.597945   3.394585
    37  H    6.719929   4.288371   3.374499   3.543027   2.656580
    38  H    2.661058   6.218793   7.069832   8.325735   7.038036
    39  H    3.101921   6.195147   6.967293   8.293025   6.729299
    40  H    3.347474   6.208731   7.238981   8.520380   7.363239
    41  H    4.412848   4.805430   4.757649   5.896725   3.780344
    42  H    6.129002   7.102386   6.867104   7.885915   5.615286
    43  H    8.174724   7.605718   6.650434   7.004632   5.167347
    44  H    6.964029   5.522014   4.437000   4.651235   3.069201
    45  H    8.622069   9.218294   8.816911   9.660645   7.476127
    46  H   10.659122  11.556064  11.111824  11.915655   9.711456
    47  H   11.558413  12.505987  11.894003  12.568449  10.406078
    48  H   10.656892  11.398131  10.630913  11.160948   9.123357
    49  H    8.604679   9.015129   8.200683   8.713743   6.693065
                   11         12         13         14         15
    11  C    0.000000
    12  O    1.355372   0.000000
    13  Br   2.930920   4.052206   0.000000
    14  O    1.179984   2.221821   3.322279   0.000000
    15  C    3.363150   2.409071   5.134226   4.362594   0.000000
    16  C    4.307153   3.069048   6.501971   5.149971   1.520591
    17  O    3.317634   2.753118   4.917192   4.125399   1.395821
    18  C    8.709364   7.984891   8.964467   9.878265   6.479311
    19  C    5.590123   4.350989   7.573192   6.493400   2.512743
    20  C    6.640160   5.331204   8.834514   7.437999   3.798546
    21  C    6.680013   5.355892   9.182526   7.295400   4.334975
    22  C    5.629110   4.353523   8.305538   6.109941   3.819518
    23  C    4.345354   3.080963   6.952533   4.920566   2.552128
    24  C    8.051871   6.730201  10.629696   8.588375   5.825462
    25  C    9.161404   7.850714  11.631896   9.738886   6.640506
    26  C   10.423980   9.111369  12.957105  10.948974   8.007245
    27  C   10.710217   9.403185  13.369020  11.146881   8.620304
    28  C    9.787395   8.498762  12.517595  10.166227   8.017691
    29  C    8.430200   7.130798  11.140356   8.849978   6.653148
    30  H    3.017143   2.033459   4.803769   4.073313   2.162966
    31  H    4.123856   3.309016   5.376735   5.204322   1.080387
    32  H    4.713176   4.291187   5.094005   5.781567   4.205933
    33  H    5.862017   5.612215   5.493307   6.972320   4.017942
    34  H    7.824224   7.298110   7.716207   8.989936   5.460906
    35  H    6.980374   6.303527   7.438697   8.076698   5.559887
    36  H    3.987428   4.279570   2.870989   4.996642   4.051211
    37  H    3.050885   2.502307   5.044927   3.644150   1.935316
    38  H    9.076437   8.356461   9.337999  10.222810   7.086296
    39  H    8.933885   8.078429   9.482090  10.093739   6.402879
    40  H    9.403122   8.759697   9.405516  10.580266   7.166612
    41  H    5.946959   4.813269   7.560394   6.954419   2.698091
    42  H    7.609289   6.309461   9.670219   8.452865   4.642707
    43  H    5.988465   4.796411   8.801891   6.278906   4.675610
    44  H    3.646160   2.512255   6.413507   4.038050   2.771626
    45  H    9.140705   7.857853  11.457832   9.784740   6.362098
    46  H   11.283276   9.978915  13.744826  11.834971   8.711083
    47  H   11.750131  10.448865  14.428918  12.159195   9.695917
    48  H   10.218629   8.965287  12.999389  10.520339   8.728095
    49  H    7.792442   6.525377  10.553429   8.152428   6.385815
                   16         17         18         19         20
    16  C    0.000000
    17  O    2.440112   0.000000
    18  C    6.729815   7.560090   0.000000
    19  C    1.387041   3.486456   5.988977   0.000000
    20  C    2.414323   4.672607   6.671201   1.384942   0.000000
    21  C    2.814784   5.058532   7.933360   2.413050   1.389711
    22  C    2.410882   4.378535   8.498054   2.752716   2.384694
    23  C    1.392069   3.090427   7.973768   2.384272   2.760795
    24  C    4.305310   6.511487   8.873146   3.782959   2.508130
    25  C    5.159493   7.241328   9.186537   4.400474   3.060428
    26  C    6.513943   8.602723  10.247093   5.761928   4.400833
    27  C    7.100191   9.268365  10.968369   6.496226   5.141930
    28  C    6.512753   8.718651  10.714225   6.100434   4.836291
    29  C    5.158049   7.378729   9.704709   4.835214   3.658983
    30  H    2.681682   3.329862   6.080833   3.455434   4.506542
    31  H    2.114916   1.980903   5.589885   2.536811   3.920839
    32  H    4.919962   5.304738   4.662341   5.198355   6.241110
    33  H    5.167209   4.337406   4.662341   5.220099   6.529747
    34  H    6.117710   6.132103   2.721302   5.606820   6.631888
    35  H    5.857159   6.815122   2.727487   5.528860   6.284904
    36  H    5.474198   4.299042   6.238439   6.108312   7.459232
    37  H    2.604541   0.944184   8.358506   3.832093   4.852801
    38  H    7.282639   8.250664   1.083665   6.574744   7.172137
    39  H    6.432247   7.502168   1.086608   5.508820   6.024474
    40  H    7.521145   8.133309   1.084402   6.781180   7.501790
    41  H    2.136368   3.693278   5.075732   1.076622   2.128074
    42  H    3.380789   5.540425   6.396127   2.130147   1.075368
    43  H    3.377958   5.088009   9.520566   3.827784   3.362912
    44  H    2.145961   3.010316   8.678817   3.366096   3.835106
    45  H    4.968556   6.888328   8.778114   4.080502   2.849901
    46  H    7.256085   9.253725  10.646022   6.410798   5.078211
    47  H    8.175812  10.334739  11.852208   7.556376   6.193384
    48  H    7.254121   9.446777  11.428150   6.944523   5.738347
    49  H    4.966220   7.150599   9.695018   4.872144   3.901302
                   21         22         23         24         25
    21  C    0.000000
    22  C    1.393360   0.000000
    23  C    2.418042   1.381989   0.000000
    24  C    1.490527   2.510510   3.785219   0.000000
    25  C    2.507177   3.661973   4.839248   1.392520   0.000000
    26  C    3.782010   4.839104   6.103406   2.414514   1.384375
    27  C    4.285409   5.143965   6.496963   2.794882   2.401197
    28  C    3.781937   4.401806   5.760633   2.414466   2.764270
    29  C    2.507154   3.061112   4.399220   1.392560   2.392502
    30  H    4.920489   4.389146   3.303121   6.296136   7.348363
    31  H    4.757778   4.525296   3.403199   6.219118   6.888596
    32  H    6.964196   6.744721   5.793522   8.233557   9.165153
    33  H    7.615718   7.566284   6.474003   9.000349   9.479884
    34  H    7.936119   8.294680   7.502866   9.108197   9.371880
    35  H    7.248639   7.491331   6.868412   8.284800   8.987720
    36  H    8.199594   7.724123   6.432489   9.663843  10.483557
    37  H    4.975313   4.078155   2.797076   6.377958   7.187812
    38  H    8.356776   8.916669   8.442873   9.229400   9.608002
    39  H    7.317761   8.027544   7.648220   8.151484   8.352179
    40  H    8.808300   9.382218   8.817100   9.755500   9.986066
    41  H    3.380014   3.829254   3.364712   4.635251   5.069948
    42  H    2.137785   3.364583   3.835958   2.714033   2.852594
    43  H    2.139366   1.075254   2.125096   2.713724   3.908086
    44  H    3.380845   2.121594   1.074589   4.631442   5.735466
    45  H    2.708839   3.903845   4.877454   2.138900   1.075531
    46  H    4.638883   5.741281   6.948295   3.384954   2.132807
    47  H    5.361031   6.195184   7.556682   3.870504   3.376650
    48  H    4.638719   5.078131   6.407658   3.384845   3.840067
    49  H    2.709096   2.848568   4.076666   2.139144   3.369723
                   26         27         28         29         30
    26  C    0.000000
    27  C    1.384983   0.000000
    28  C    2.392890   1.385020   0.000000
    29  C    2.764363   2.401254   1.384345   0.000000
    30  H    8.618686   8.974779   8.144162   6.785693   0.000000
    31  H    8.264609   8.985023   8.491154   7.158810   2.542874
    32  H   10.385810  10.767050   9.995034   8.719898   2.595771
    33  H   10.825235  11.666909  11.290373  10.007673   4.656632
    34  H   10.598638  11.505731  11.300388  10.158582   5.822802
    35  H   10.083210  10.525015   9.939066   8.825672   4.314284
    36  H   11.838486  12.426079  11.753304  10.387306   3.815626
    37  H    8.509600   9.084177   8.466137   7.136403   3.582794
    38  H   10.606899  11.220988  10.905231   9.936244   6.378250
    39  H    9.363687  10.128528   9.969678   9.026165   6.186491
    40  H   11.045025  11.836204  11.649561  10.650714   6.929488
    41  H    6.403082   7.233477   6.941847   5.735252   3.644167
    42  H    4.084672   4.957882   4.880603   3.907921   5.285128
    43  H    4.880568   4.957141   4.082912   2.850516   5.122422
    44  H    6.939740   7.226425   6.391809   5.058957   3.382111
    45  H    2.131678   3.372194   3.839617   3.369579   7.314996
    46  H    1.075861   2.137621   3.370030   3.840185   9.452215
    47  H    2.139175   1.075622   2.139170   3.376663  10.022664
    48  H    3.370029   2.137674   1.075827   2.132665   8.668069
    49  H    3.839735   3.372160   2.131501   1.075519   6.263710
                   31         32         33         34         35
    31  H    0.000000
    32  H    3.938802   0.000000
    33  H    3.072584   4.254650   0.000000
    34  H    4.397396   4.911453   2.453323   0.000000
    35  H    5.004292   2.447068   4.911780   4.259519   0.000000
    36  H    3.712102   3.286651   2.836277   4.890035   5.171758
    37  H    2.783055   5.809784   5.253048   7.050018   7.435884
    38  H    6.284438   4.710578   5.498438   3.730034   2.438607
    39  H    5.533892   5.174970   5.036335   3.045505   3.255126
    40  H    6.203700   5.434308   4.779354   2.550856   3.650514
    41  H    2.266563   4.900190   4.443346   4.581112   4.972225
    42  H    4.568256   6.700099   6.843955   6.563344   6.350298
    43  H    5.478125   7.541034   8.543096   9.353883   8.387086
    44  H    3.794080   5.975296   6.787332   8.093926   7.374652
    45  H    6.490531   9.068546   8.921237   8.759865   8.846418
    46  H    8.887335  11.151048  11.306744  10.952213  10.726415
    47  H   10.053809  11.773807  12.707956  12.472792  11.452613
    48  H    9.258762  10.490698  12.087291  12.132836  10.476449
    49  H    6.988166   8.231696   9.886289  10.186908   8.524527
                   36         37         38         39         40
    36  H    0.000000
    37  H    4.914835   0.000000
    38  H    6.710730   8.999928   0.000000
    39  H    6.808296   8.276480   1.752396   0.000000
    40  H    6.588138   8.982090   1.754493   1.751849   0.000000
    41  H    5.732190   4.261307   5.756928   4.593140   5.801461
    42  H    8.066433   5.811998   6.892691   5.614840   7.192626
    43  H    8.509027   4.621593   9.896899   9.055031  10.423965
    44  H    6.341463   2.441760   9.126114   8.451387   9.511443
    45  H   10.162723   6.930713   9.300035   7.917750   9.498882
    46  H   12.519040   9.207785  11.045881   9.706825  11.377083
    47  H   13.492787  10.138397  12.072963  10.984806  12.710490
    48  H   12.373315   9.139035  11.543101  10.720201  12.397136
    49  H    9.978765   6.847066   9.866708   9.114722  10.683303
                   41         42         43         44         45
    41  H    0.000000
    42  H    2.437229   0.000000
    43  H    4.904350   4.260023   0.000000
    44  H    4.265065   4.910255   2.426508   0.000000
    45  H    4.606451   2.502858   4.341492   5.826994   0.000000
    46  H    6.944799   4.619639   5.831554   7.809734   2.448317
    47  H    8.267783   5.947335   5.946218   8.259835   4.260383
    48  H    7.809846   5.831646   4.616692   6.929777   4.915436
    49  H    5.822932   4.341900   2.498145   4.590210   4.262594
                   46         47         48         49
    46  H    0.000000
    47  H    2.466124   0.000000
    48  H    4.262510   2.466159   0.000000
    49  H    4.915585   4.260252   2.447910   0.000000
 Stoichiometry    C24H20BrNO3
 Framework group  C1[X(C24H20BrNO3)]
 Deg. of freedom   141
 Full point group                 C1      NOp   1
 Largest Abelian subgroup         C1      NOp   1
 Largest concise Abelian subgroup C1      NOp   1
                         Standard orientation:                         
 ---------------------------------------------------------------------
 Center     Atomic      Atomic             Coordinates (Angstroms)
 Number     Number       Type             X           Y           Z
 ---------------------------------------------------------------------
      1          6           0        2.054958    2.480564   -1.276896
      2          6           0        2.512359    2.101688   -0.025306
      3          6           0        2.377725    2.979304    1.041313
      4          6           0        1.786240    4.214710    0.853492
      5          6           0        1.300558    4.599325   -0.392846
      6          6           0        1.444228    3.712272   -1.450988
      7          7           0        3.156239    0.848674    0.179262
      8          6           0        2.646697   -0.365042   -0.106909
      9          6           0        3.299843   -1.522808   -0.230071
     10          6           0        1.168562   -0.648793   -0.289636
     11          6           0        2.355522   -2.598749   -0.494003
     12          8           0        1.125822   -2.032949   -0.562857
     13         35           0        5.140865   -1.789889   -0.072222
     14          8           0        2.524932   -3.757113   -0.641837
     15          6           0        0.322474   -0.350029    0.962277
     16          6           0       -1.170957   -0.425666    0.686344
     17          8           0        0.735282   -1.162377    2.019631
     18          6           0        0.622645    5.936055   -0.579319
     19          6           0       -1.950014    0.713446    0.825541
     20          6           0       -3.315066    0.680331    0.594020
     21          6           0       -3.945936   -0.500281    0.220583
     22          6           0       -3.161943   -1.643881    0.082788
     23          6           0       -1.798900   -1.609106    0.308172
     24          6           0       -5.415275   -0.542400   -0.026277
     25          6           0       -6.303601    0.073317    0.851722
     26          6           0       -7.668261    0.035168    0.622064
     27          6           0       -8.170307   -0.619947   -0.490120
     28          6           0       -7.296929   -1.236742   -1.370492
     29          6           0       -5.932349   -1.198256   -1.140598
     30          1           0        0.766645   -0.117001   -1.141727
     31          1           0        0.547158    0.661191    1.269175
     32          1           0        2.188931    1.822867   -2.117453
     33          1           0        2.734683    2.686706    2.012678
     34          1           0        1.694778    4.885241    1.690440
     35          1           0        1.091645    3.987747   -2.429540
     36          1           0        4.137850    0.866805    0.350286
     37          1           0        0.486870   -2.058546    1.856363
     38          1           0        0.635929    6.242039   -1.618803
     39          1           0       -0.415457    5.891356   -0.261416
     40          1           0        1.111247    6.708348    0.004427
     41          1           0       -1.489903    1.642910    1.114522
     42          1           0       -3.889374    1.584289    0.691216
     43          1           0       -3.625125   -2.575424   -0.188986
     44          1           0       -1.227269   -2.509523    0.176917
     45          1           0       -5.926300    0.566347    1.729977
     46          1           0       -8.338773    0.510442    1.316330
     47          1           0       -9.230621   -0.650298   -0.668376
     48          1           0       -7.676319   -1.743142   -2.240565
     49          1           0       -5.262497   -1.664354   -1.841164
 ---------------------------------------------------------------------
 Rotational constants (GHZ):      0.1957451      0.0674357      0.0531353
 Leave Link  202 at Sun Jul 07 11:15:07 2019, MaxMem=   209715200 cpu:         0.0
 (Enter C:\G09W\l301.exe)
 Standard basis: 6-311++G(d,p) (5D, 7F)
 Ernie: Thresh=  0.10000D-02 Tol=  0.10000D-05 Strict=F.
 There are   835 symmetry adapted cartesian basis functions of A   symmetry.
 There are   804 symmetry adapted basis functions of A   symmetry.
   804 basis functions,  1282 primitive gaussians,   835 cartesian basis functions
   115 alpha electrons      115 beta electrons
       nuclear repulsion energy      3028.2752034937 Hartrees.
 IExCor=  402 DFT=T Ex+Corr=B3LYP ExCW=0 ScaHFX=  0.200000
 ScaDFX=  0.800000  0.720000  1.000000  0.810000 ScalE2=  1.000000  1.000000
 IRadAn=      0 IRanWt=     -1 IRanGd=            0 ICorTp=0 IEmpDi=  4
 NAtoms=   49 NActive=   49 NUniq=   49 SFac= 1.00D+00 NAtFMM=   60 NAOKFM=F Big=F
 Integral buffers will be    262144 words long.
 Raffenetti 2 integral format.
 Two-electron integral symmetry is turned on.
 Leave Link  301 at Sun Jul 07 11:15:07 2019, MaxMem=   209715200 cpu:         0.0
 (Enter C:\G09W\l302.exe)
 NPDir=0 NMtPBC=     1 NCelOv=     1 NCel=       1 NClECP=     1 NCelD=      1
         NCelK=      1 NCelE2=     1 NClLst=     1 CellRange=     0.0.
 One-electron integrals computed using PRISM.
 NBasis=   804 RedAO= T EigKep=  1.15D-06  NBF=   804
 NBsUse=   797 1.00D-06 EigRej=  8.66D-07 NBFU=   797
 Precomputing XC quadrature grid using
 IXCGrd= 4 IRadAn=           0 IRanWt=          -1 IRanGd=           0 AccXCQ= 0.00D+00.
 Generated NRdTot=       0 NPtTot=           0 NUsed=           0 NTot=          16
 NSgBfM=   786   786   787   787   787 MxSgAt=    49 MxSgA2=    49.
 Leave Link  302 at Sun Jul 07 11:15:12 2019, MaxMem=   209715200 cpu:         5.0
 (Enter C:\G09W\l303.exe)
 DipDrv:  MaxL=1.
 Leave Link  303 at Sun Jul 07 11:15:13 2019, MaxMem=   209715200 cpu:         1.0
 (Enter C:\G09W\l401.exe)
 ExpMin= 3.50D-02 ExpMax= 4.40D+05 ExpMxC= 1.51D+04 IAcc=3 IRadAn=         5 AccDes= 0.00D+00
 Harris functional with IExCor=  402 and IRadAn=       5 diagonalized for initial guess.
 HarFok:  IExCor=  402 AccDes= 0.00D+00 IRadAn=         5 IDoV= 1 UseB2=F ITyADJ=14
 ICtDFT=  3500011 ScaDFX=  1.000000  1.000000  1.000000  1.000000
 FoFCou: FMM=F IPFlag=           0 FMFlag=      100000 FMFlg1=           0
         NFxFlg=           0 DoJE=T BraDBF=F KetDBF=T FulRan=T
         wScrn=  0.000000 ICntrl=     500 IOpCl=  0 I1Cent=   200000004 NGrid=           0
         NMat0=    1 NMatS0=      1 NMatT0=    0 NMatD0=    1 NMtDS0=    0 NMtDT0=    0
 Petite list used in FoFCou.
 Harris En= -3781.64550972025    
 JPrj=0 DoOrth=F DoCkMO=F.
 Leave Link  401 at Sun Jul 07 11:16:14 2019, MaxMem=   209715200 cpu:        61.0
 (Enter C:\G09W\l502.exe)
 Closed shell SCF:
 Using DIIS extrapolation, IDIIS=  1040.
 Integral symmetry usage will be decided dynamically.
 IVT=     2120311 IEndB=     2120311 NGot=   209715200 MDV=   208309590
 LenX=   208309590 LenY=   207611530
 Requested convergence on RMS density matrix=1.00D-08 within 128 cycles.
 Requested convergence on MAX density matrix=1.00D-06.
 Requested convergence on             energy=1.00D-06.
 No special actions if energy rises.
 Fock matrices will be formed incrementally for  20 cycles.

 Cycle   1  Pass 1  IDiag  1:
 FoFJK:  IHMeth= 1 ICntrl=       0 DoSepK=F KAlg= 0 I1Cent=   0 FoldK=F
 IRaf= 740000000 NMat=   1 IRICut=       1 DoRegI=T DoRafI=F ISym2E= 0.
 FoFCou: FMM=F IPFlag=           0 FMFlag=      100000 FMFlg1=           0
         NFxFlg=           0 DoJE=F BraDBF=F KetDBF=F FulRan=T
         wScrn=  0.000000 ICntrl=       0 IOpCl=  0 I1Cent=           0 NGrid=           0
         NMat0=    1 NMatS0=      1 NMatT0=    0 NMatD0=    1 NMtDS0=    0 NMtDT0=    0
 Symmetry not used in FoFCou.
 E= -3780.76204345088    
 DIIS: error= 4.63D-02 at cycle   1 NSaved=   1.
 NSaved= 1 IEnMin= 1 EnMin= -3780.76204345088     IErMin= 1 ErrMin= 4.63D-02
 ErrMax= 4.63D-02  0.00D+00 EMaxC= 1.00D-01 BMatC= 1.99D+00 BMatP= 1.99D+00
 IDIUse=3 WtCom= 5.37D-01 WtEn= 4.63D-01
 Coeff-Com:  0.100D+01
 Coeff-En:   0.100D+01
 Coeff:      0.100D+01
 Gap=     0.263 Goal=   None    Shift=    0.000
 GapD=    0.263 DampG=1.000 DampE=0.500 DampFc=0.5000 IDamp=-1.
 Damping current iteration by 5.00D-01
 RMSDP=2.83D-02 MaxDP=2.10D+00              OVMax= 2.69D-01

 Cycle   2  Pass 1  IDiag  1:
 RMSU=  1.41D-02    CP:  9.73D-01
 E= -3781.03795900376     Delta-E=       -0.275915552881 Rises=F Damp=T
 DIIS: error= 2.34D-02 at cycle   2 NSaved=   2.
 NSaved= 2 IEnMin= 2 EnMin= -3781.03795900376     IErMin= 2 ErrMin= 2.34D-02
 ErrMax= 2.34D-02  0.00D+00 EMaxC= 1.00D-01 BMatC= 2.69D-01 BMatP= 1.99D+00
 IDIUse=3 WtCom= 7.66D-01 WtEn= 2.34D-01
 Coeff-Com: -0.102D+00 0.110D+01
 Coeff-En:   0.208D+00 0.792D+00
 Coeff:     -0.297D-01 0.103D+01
 Gap=     0.354 Goal=   None    Shift=    0.000
 RMSDP=1.34D-02 MaxDP=1.74D+00 DE=-2.76D-01 OVMax= 1.76D-01

 Cycle   3  Pass 1  IDiag  1:
 RMSU=  6.75D-03    CP:  8.88D-01  2.34D-01
 E= -3781.28617503483     Delta-E=       -0.248216031066 Rises=F Damp=F
 DIIS: error= 1.73D-02 at cycle   3 NSaved=   3.
 NSaved= 3 IEnMin= 3 EnMin= -3781.28617503483     IErMin= 3 ErrMin= 1.73D-02
 ErrMax= 1.73D-02  0.00D+00 EMaxC= 1.00D-01 BMatC= 2.59D-01 BMatP= 2.69D-01
 IDIUse=3 WtCom= 8.27D-01 WtEn= 1.73D-01
 Coeff-Com: -0.172D+00 0.624D+00 0.548D+00
 Coeff-En:   0.000D+00 0.818D-01 0.918D+00
 Coeff:     -0.142D+00 0.530D+00 0.612D+00
 Gap=     0.199 Goal=   None    Shift=    0.000
 RMSDP=7.44D-03 MaxDP=5.91D-01 DE=-2.48D-01 OVMax= 2.26D-01

 Cycle   4  Pass 1  IDiag  1:
 RMSU=  6.61D-03    CP:  9.12D-01  4.59D-01  9.25D-01
 E= -3781.38553353051     Delta-E=       -0.099358495677 Rises=F Damp=F
 DIIS: error= 1.45D-02 at cycle   4 NSaved=   4.
 NSaved= 4 IEnMin= 4 EnMin= -3781.38553353051     IErMin= 4 ErrMin= 1.45D-02
 ErrMax= 1.45D-02  0.00D+00 EMaxC= 1.00D-01 BMatC= 1.23D-01 BMatP= 2.59D-01
 IDIUse=3 WtCom= 8.55D-01 WtEn= 1.45D-01
 Coeff-Com: -0.912D-01 0.238D+00 0.436D+00 0.417D+00
 Coeff-En:   0.000D+00 0.000D+00 0.372D+00 0.628D+00
 Coeff:     -0.780D-01 0.203D+00 0.427D+00 0.448D+00
 Gap=     0.245 Goal=   None    Shift=    0.000
 RMSDP=5.93D-03 MaxDP=5.92D-01 DE=-9.94D-02 OVMax= 1.09D-01

 Cycle   5  Pass 1  IDiag  1:
 RMSU=  2.66D-03    CP:  8.39D-01  5.12D-01  8.07D-01  4.43D-01
 E= -3781.48703516228     Delta-E=       -0.101501631777 Rises=F Damp=F
 DIIS: error= 2.35D-03 at cycle   5 NSaved=   5.
 NSaved= 5 IEnMin= 5 EnMin= -3781.48703516228     IErMin= 5 ErrMin= 2.35D-03
 ErrMax= 2.35D-03  0.00D+00 EMaxC= 1.00D-01 BMatC= 3.34D-03 BMatP= 1.23D-01
 IDIUse=3 WtCom= 9.76D-01 WtEn= 2.35D-02
 Coeff-Com: -0.209D-01 0.500D-01 0.141D+00 0.221D+00 0.609D+00
 Coeff-En:   0.000D+00 0.000D+00 0.000D+00 0.000D+00 0.100D+01
 Coeff:     -0.204D-01 0.489D-01 0.138D+00 0.216D+00 0.618D+00
 Gap=     0.184 Goal=   None    Shift=    0.000
 RMSDP=1.31D-03 MaxDP=9.95D-02 DE=-1.02D-01 OVMax= 2.05D-02

 Cycle   6  Pass 1  IDiag  1:
 RMSU=  6.38D-04    CP:  8.46D-01  4.85D-01  8.15D-01  5.30D-01  6.86D-01
 E= -3781.48966705689     Delta-E=       -0.002631894609 Rises=F Damp=F
 DIIS: error= 7.70D-04 at cycle   6 NSaved=   6.
 NSaved= 6 IEnMin= 6 EnMin= -3781.48966705689     IErMin= 6 ErrMin= 7.70D-04
 ErrMax= 7.70D-04  0.00D+00 EMaxC= 1.00D-01 BMatC= 5.66D-04 BMatP= 3.34D-03
 IDIUse=3 WtCom= 9.92D-01 WtEn= 7.70D-03
 Coeff-Com: -0.121D-02 0.174D-02 0.232D-01 0.689D-01 0.380D+00 0.527D+00
 Coeff-En:   0.000D+00 0.000D+00 0.000D+00 0.000D+00 0.113D+00 0.887D+00
 Coeff:     -0.120D-02 0.173D-02 0.230D-01 0.683D-01 0.378D+00 0.530D+00
 Gap=     0.183 Goal=   None    Shift=    0.000
 RMSDP=5.72D-04 MaxDP=5.74D-02 DE=-2.63D-03 OVMax= 5.86D-03

 Cycle   7  Pass 1  IDiag  1:
 RMSU=  1.94D-04    CP:  8.50D-01  4.77D-01  8.63D-01  5.44D-01  7.15D-01
                    CP:  4.85D-01
 E= -3781.49010667685     Delta-E=       -0.000439619961 Rises=F Damp=F
 DIIS: error= 3.65D-04 at cycle   7 NSaved=   7.
 NSaved= 7 IEnMin= 7 EnMin= -3781.49010667685     IErMin= 7 ErrMin= 3.65D-04
 ErrMax= 3.65D-04  0.00D+00 EMaxC= 1.00D-01 BMatC= 4.18D-05 BMatP= 5.66D-04
 IDIUse=3 WtCom= 9.96D-01 WtEn= 3.65D-03
 Coeff-Com:  0.610D-03-0.177D-02 0.185D-02 0.162D-01 0.149D+00 0.284D+00
 Coeff-Com:  0.550D+00
 Coeff-En:   0.000D+00 0.000D+00 0.000D+00 0.000D+00 0.000D+00 0.893D-02
 Coeff-En:   0.991D+00
 Coeff:      0.608D-03-0.176D-02 0.184D-02 0.161D-01 0.149D+00 0.283D+00
 Coeff:      0.551D+00
 Gap=     0.183 Goal=   None    Shift=    0.000
 RMSDP=1.84D-04 MaxDP=1.95D-02 DE=-4.40D-04 OVMax= 2.58D-03

 Cycle   8  Pass 1  IDiag  1:
 RMSU=  8.53D-05    CP:  8.49D-01  4.82D-01  8.50D-01  5.36D-01  7.20D-01
                    CP:  5.54D-01  7.00D-01
 E= -3781.49013893091     Delta-E=       -0.000032254055 Rises=F Damp=F
 DIIS: error= 2.05D-04 at cycle   8 NSaved=   8.
 NSaved= 8 IEnMin= 8 EnMin= -3781.49013893091     IErMin= 8 ErrMin= 2.05D-04
 ErrMax= 2.05D-04  0.00D+00 EMaxC= 1.00D-01 BMatC= 1.26D-05 BMatP= 4.18D-05
 IDIUse=3 WtCom= 9.98D-01 WtEn= 2.05D-03
 Coeff-Com:  0.682D-03-0.155D-02-0.213D-02 0.871D-03 0.522D-01 0.126D+00
 Coeff-Com:  0.381D+00 0.443D+00
 Coeff-En:   0.000D+00 0.000D+00 0.000D+00 0.000D+00 0.000D+00 0.000D+00
 Coeff-En:   0.233D+00 0.767D+00
 Coeff:      0.681D-03-0.154D-02-0.212D-02 0.869D-03 0.521D-01 0.125D+00
 Coeff:      0.381D+00 0.444D+00
 Gap=     0.183 Goal=   None    Shift=    0.000
 RMSDP=6.21D-05 MaxDP=6.77D-03 DE=-3.23D-05 OVMax= 9.59D-04

 Cycle   9  Pass 1  IDiag  1:
 RMSU=  2.31D-05    CP:  8.48D-01  4.82D-01  8.49D-01  5.36D-01  7.29D-01
                    CP:  5.60D-01  7.44D-01  5.70D-01
 E= -3781.49015135721     Delta-E=       -0.000012426303 Rises=F Damp=F
 DIIS: error= 1.72D-05 at cycle   9 NSaved=   9.
 NSaved= 9 IEnMin= 9 EnMin= -3781.49015135721     IErMin= 9 ErrMin= 1.72D-05
 ErrMax= 1.72D-05  0.00D+00 EMaxC= 1.00D-01 BMatC= 2.61D-07 BMatP= 1.26D-05
 IDIUse=1 WtCom= 1.00D+00 WtEn= 0.00D+00
 Coeff-Com:  0.301D-03-0.654D-03-0.872D-03-0.466D-03 0.151D-01 0.392D-01
 Coeff-Com:  0.132D+00 0.198D+00 0.618D+00
 Coeff:      0.301D-03-0.654D-03-0.872D-03-0.466D-03 0.151D-01 0.392D-01
 Coeff:      0.132D+00 0.198D+00 0.618D+00
 Gap=     0.183 Goal=   None    Shift=    0.000
 RMSDP=9.21D-06 MaxDP=7.69D-04 DE=-1.24D-05 OVMax= 1.01D-04

 Cycle  10  Pass 1  IDiag  1:
 RMSU=  5.22D-06    CP:  8.48D-01  4.82D-01  8.50D-01  5.36D-01  7.27D-01
                    CP:  5.62D-01  7.40D-01  5.73D-01  7.49D-01
 E= -3781.49015157162     Delta-E=       -0.000000214406 Rises=F Damp=F
 DIIS: error= 7.24D-06 at cycle  10 NSaved=  10.
 NSaved=10 IEnMin=10 EnMin= -3781.49015157162     IErMin=10 ErrMin= 7.24D-06
 ErrMax= 7.24D-06  0.00D+00 EMaxC= 1.00D-01 BMatC= 4.61D-08 BMatP= 2.61D-07
 IDIUse=1 WtCom= 1.00D+00 WtEn= 0.00D+00
 Coeff-Com:  0.859D-04-0.197D-03-0.236D-03-0.442D-03 0.228D-02 0.769D-02
 Coeff-Com:  0.323D-01 0.626D-01 0.347D+00 0.549D+00
 Coeff:      0.859D-04-0.197D-03-0.236D-03-0.442D-03 0.228D-02 0.769D-02
 Coeff:      0.323D-01 0.626D-01 0.347D+00 0.549D+00
 Gap=     0.183 Goal=   None    Shift=    0.000
 RMSDP=3.34D-06 MaxDP=4.64D-04 DE=-2.14D-07 OVMax= 3.19D-05

 Cycle  11  Pass 1  IDiag  1:
 RMSU=  1.60D-06    CP:  8.48D-01  4.82D-01  8.50D-01  5.36D-01  7.27D-01
                    CP:  5.61D-01  7.45D-01  5.86D-01  7.78D-01  8.04D-01
 E= -3781.49015160725     Delta-E=       -0.000000035629 Rises=F Damp=F
 DIIS: error= 1.04D-06 at cycle  11 NSaved=  11.
 NSaved=11 IEnMin=11 EnMin= -3781.49015160725     IErMin=11 ErrMin= 1.04D-06
 ErrMax= 1.04D-06  0.00D+00 EMaxC= 1.00D-01 BMatC= 1.53D-09 BMatP= 4.61D-08
 IDIUse=1 WtCom= 1.00D+00 WtEn= 0.00D+00
 Coeff-Com:  0.117D-04-0.297D-04-0.454D-04-0.144D-03-0.130D-03 0.419D-03
 Coeff-Com:  0.421D-02 0.119D-01 0.105D+00 0.208D+00 0.671D+00
 Coeff:      0.117D-04-0.297D-04-0.454D-04-0.144D-03-0.130D-03 0.419D-03
 Coeff:      0.421D-02 0.119D-01 0.105D+00 0.208D+00 0.671D+00
 Gap=     0.183 Goal=   None    Shift=    0.000
 RMSDP=9.29D-07 MaxDP=7.89D-05 DE=-3.56D-08 OVMax= 1.26D-05

 Cycle  12  Pass 1  IDiag  1:
 RMSU=  5.77D-07    CP:  8.48D-01  4.82D-01  8.50D-01  5.36D-01  7.27D-01
                    CP:  5.61D-01  7.45D-01  5.86D-01  7.95D-01  8.36D-01
                    CP:  7.67D-01
 E= -3781.49015160813     Delta-E=       -0.000000000888 Rises=F Damp=F
 DIIS: error= 6.30D-07 at cycle  12 NSaved=  12.
 NSaved=12 IEnMin=12 EnMin= -3781.49015160813     IErMin=12 ErrMin= 6.30D-07
 ErrMax= 6.30D-07  0.00D+00 EMaxC= 1.00D-01 BMatC= 5.33D-10 BMatP= 1.53D-09
 IDIUse=1 WtCom= 1.00D+00 WtEn= 0.00D+00
 Coeff-Com: -0.298D-05 0.584D-05-0.671D-05-0.269D-04-0.318D-03-0.621D-03
 Coeff-Com: -0.135D-02-0.824D-03 0.188D-01 0.474D-01 0.400D+00 0.537D+00
 Coeff:     -0.298D-05 0.584D-05-0.671D-05-0.269D-04-0.318D-03-0.621D-03
 Coeff:     -0.135D-02-0.824D-03 0.188D-01 0.474D-01 0.400D+00 0.537D+00
 Gap=     0.183 Goal=   None    Shift=    0.000
 RMSDP=2.92D-07 MaxDP=2.41D-05 DE=-8.88D-10 OVMax= 6.96D-06

 Cycle  13  Pass 1  IDiag  1:
 RMSU=  1.64D-07    CP:  8.48D-01  4.82D-01  8.50D-01  5.36D-01  7.27D-01
                    CP:  5.61D-01  7.45D-01  5.87D-01  7.96D-01  8.22D-01
                    CP:  8.27D-01  7.45D-01
 E= -3781.49015160838     Delta-E=       -0.000000000242 Rises=F Damp=F
 DIIS: error= 1.72D-07 at cycle  13 NSaved=  13.
 NSaved=13 IEnMin=13 EnMin= -3781.49015160838     IErMin=13 ErrMin= 1.72D-07
 ErrMax= 1.72D-07  0.00D+00 EMaxC= 1.00D-01 BMatC= 3.29D-11 BMatP= 5.33D-10
 IDIUse=1 WtCom= 1.00D+00 WtEn= 0.00D+00
 Coeff-Com: -0.228D-05 0.499D-05-0.237D-05-0.253D-05-0.159D-03-0.361D-03
 Coeff-Com: -0.103D-02-0.146D-02 0.113D-02 0.784D-02 0.156D+00 0.272D+00
 Coeff-Com:  0.566D+00
 Coeff:     -0.228D-05 0.499D-05-0.237D-05-0.253D-05-0.159D-03-0.361D-03
 Coeff:     -0.103D-02-0.146D-02 0.113D-02 0.784D-02 0.156D+00 0.272D+00
 Coeff:      0.566D+00
 Gap=     0.183 Goal=   None    Shift=    0.000
 RMSDP=1.01D-07 MaxDP=8.14D-06 DE=-2.42D-10 OVMax= 1.58D-06

 Cycle  14  Pass 1  IDiag  1:
 RMSU=  6.58D-08    CP:  8.48D-01  4.82D-01  8.50D-01  5.36D-01  7.27D-01
                    CP:  5.61D-01  7.45D-01  5.87D-01  7.95D-01  8.25D-01
                    CP:  8.25D-01  7.34D-01  8.27D-01
 E= -3781.49015160835     Delta-E=        0.000000000024 Rises=F Damp=F
 DIIS: error= 5.90D-08 at cycle  14 NSaved=  14.
 NSaved=14 IEnMin=13 EnMin= -3781.49015160838     IErMin=14 ErrMin= 5.90D-08
 ErrMax= 5.90D-08  0.00D+00 EMaxC= 1.00D-01 BMatC= 4.30D-12 BMatP= 3.29D-11
 IDIUse=1 WtCom= 1.00D+00 WtEn= 0.00D+00
 Coeff-Com: -0.104D-05 0.229D-05-0.819D-07 0.168D-05-0.559D-04-0.137D-03
 Coeff-Com: -0.412D-03-0.710D-03-0.141D-02-0.483D-03 0.384D-01 0.831D-01
 Coeff-Com:  0.310D+00 0.571D+00
 Coeff:     -0.104D-05 0.229D-05-0.819D-07 0.168D-05-0.559D-04-0.137D-03
 Coeff:     -0.412D-03-0.710D-03-0.141D-02-0.483D-03 0.384D-01 0.831D-01
 Coeff:      0.310D+00 0.571D+00
 Gap=     0.183 Goal=   None    Shift=    0.000
 RMSDP=3.21D-08 MaxDP=1.88D-06 DE= 2.36D-11 OVMax= 6.38D-07

 Cycle  15  Pass 1  IDiag  1:
 RMSU=  2.02D-08    CP:  8.48D-01  4.82D-01  8.50D-01  5.36D-01  7.27D-01
                    CP:  5.61D-01  7.45D-01  5.87D-01  7.95D-01  8.27D-01
                    CP:  8.31D-01  7.35D-01  8.31D-01  8.25D-01
 E= -3781.49015160774     Delta-E=        0.000000000614 Rises=F Damp=F
 DIIS: error= 2.20D-08 at cycle  15 NSaved=  15.
 NSaved=15 IEnMin=13 EnMin= -3781.49015160838     IErMin=15 ErrMin= 2.20D-08
 ErrMax= 2.20D-08  0.00D+00 EMaxC= 1.00D-01 BMatC= 4.04D-13 BMatP= 4.30D-12
 IDIUse=1 WtCom= 1.00D+00 WtEn= 0.00D+00
 Coeff-Com: -0.384D-06 0.833D-06 0.221D-06 0.104D-05-0.150D-04-0.400D-04
 Coeff-Com: -0.126D-03-0.255D-03-0.970D-03-0.117D-02 0.630D-02 0.204D-01
 Coeff-Com:  0.114D+00 0.296D+00 0.565D+00
 Coeff:     -0.384D-06 0.833D-06 0.221D-06 0.104D-05-0.150D-04-0.400D-04
 Coeff:     -0.126D-03-0.255D-03-0.970D-03-0.117D-02 0.630D-02 0.204D-01
 Coeff:      0.114D+00 0.296D+00 0.565D+00
 Gap=     0.183 Goal=   None    Shift=    0.000
 RMSDP=1.29D-08 MaxDP=1.11D-06 DE= 6.14D-10 OVMax= 2.05D-07

 Cycle  16  Pass 1  IDiag  1:
 RMSU=  6.02D-09    CP:  8.48D-01  4.82D-01  8.50D-01  5.36D-01  7.27D-01
                    CP:  5.61D-01  7.45D-01  5.87D-01  7.95D-01  8.27D-01
                    CP:  8.30D-01  7.40D-01  8.39D-01  8.26D-01  7.62D-01
 E= -3781.49015160833     Delta-E=       -0.000000000592 Rises=F Damp=F
 DIIS: error= 1.03D-08 at cycle  16 NSaved=  16.
 NSaved=16 IEnMin=13 EnMin= -3781.49015160838     IErMin=16 ErrMin= 1.03D-08
 ErrMax= 1.03D-08  0.00D+00 EMaxC= 1.00D-01 BMatC= 9.30D-14 BMatP= 4.04D-13
 IDIUse=1 WtCom= 1.00D+00 WtEn= 0.00D+00
 Coeff-Com: -0.746D-07 0.167D-06 0.203D-06 0.219D-06-0.901D-06-0.437D-05
 Coeff-Com: -0.160D-04-0.427D-04-0.312D-03-0.529D-03-0.195D-02-0.223D-03
 Coeff-Com:  0.216D-01 0.882D-01 0.350D+00 0.543D+00
 Coeff:     -0.746D-07 0.167D-06 0.203D-06 0.219D-06-0.901D-06-0.437D-05
 Coeff:     -0.160D-04-0.427D-04-0.312D-03-0.529D-03-0.195D-02-0.223D-03
 Coeff:      0.216D-01 0.882D-01 0.350D+00 0.543D+00
 Gap=     0.183 Goal=   None    Shift=    0.000
 RMSDP=4.80D-09 MaxDP=4.62D-07 DE=-5.92D-10 OVMax= 8.51D-08

 SCF Done:  E(RB3LYP) =  -3781.49015161     A.U. after   16 cycles
            NFock= 16  Conv=0.48D-08     -V/T= 2.0019
 KE= 3.774377766192D+03 PE=-1.502003818780D+04 EE= 4.435895066509D+03
 Leave Link  502 at Sun Jul 07 12:08:59 2019, MaxMem=   209715200 cpu:      3165.0
 (Enter C:\G09W\l601.exe)
 Copying SCF densities to generalized density rwf, IOpCl= 0 IROHF=0.

 **********************************************************************

            Population analysis using the SCF density.

 **********************************************************************

 Orbital symmetries:
       Occupied  (A) (A) (A) (A) (A) (A) (A) (A) (A) (A) (A) (A)
                 (A) (A) (A) (A) (A) (A) (A) (A) (A) (A) (A) (A)
                 (A) (A) (A) (A) (A) (A) (A) (A) (A) (A) (A) (A)
                 (A) (A) (A) (A) (A) (A) (A) (A) (A) (A) (A) (A)
                 (A) (A) (A) (A) (A) (A) (A) (A) (A) (A) (A) (A)
                 (A) (A) (A) (A) (A) (A) (A) (A) (A) (A) (A) (A)
                 (A) (A) (A) (A) (A) (A) (A) (A) (A) (A) (A) (A)
                 (A) (A) (A) (A) (A) (A) (A) (A) (A) (A) (A) (A)
                 (A) (A) (A) (A) (A) (A) (A) (A) (A) (A) (A) (A)
                 (A) (A) (A) (A) (A) (A) (A)
       Virtual   (A) (A) (A) (A) (A) (A) (A) (A) (A) (A) (A) (A)
                 (A) (A) (A) (A) (A) (A) (A) (A) (A) (A) (A) (A)
                 (A) (A) (A) (A) (A) (A) (A) (A) (A) (A) (A) (A)
                 (A) (A) (A) (A) (A) (A) (A) (A) (A) (A) (A) (A)
                 (A) (A) (A) (A) (A) (A) (A) (A) (A) (A) (A) (A)
[...]
   569. RY*(   1) C  27                  0.00602     1.10424   
   570. RY*(   2) C  27                  0.00214     1.27273   
   571. RY*(   3) C  27                  0.00099     0.46462   
   572. RY*(   4) C  27                  0.00055     1.65470   
   573. RY*(   5) C  27                  0.00037     0.84017   
   574. RY*(   6) C  27                  0.00035     0.87070   
   575. RY*(   7) C  27                  0.00011     2.98671   
   576. RY*(   8) C  27                  0.00007     2.94986   
   577. RY*(   9) C  27                  0.00004     2.91527   
   578. RY*(  10) C  27                  0.00001     1.26307   
   579. RY*(  11) C  27                  0.00000     2.98766   
   580. RY*(  12) C  27                  0.00001     1.98630   
   581. RY*(  13) C  27                  0.00000     1.55152   
   582. RY*(  14) C  27                  0.00000     0.37969   
   583. RY*(  15) C  27                  0.00000     2.49096   
   584. RY*(  16) C  27                  0.00001     2.76185   
   585. RY*(  17) C  27                  0.00000    18.90759   
   586. RY*(   1) C  28                  0.00587     1.06263   
   587. RY*(   2) C  28                  0.00212     1.30523   
   588. RY*(   3) C  28                  0.00084     0.54386   
   589. RY*(   4) C  28                  0.00061     1.59107   
   590. RY*(   5) C  28                  0.00044     0.97854   
   591. RY*(   6) C  28                  0.00017     1.48873   
   592. RY*(   7) C  28                  0.00011     3.15636   
   593. RY*(   8) C  28                  0.00005     2.85444   
   594. RY*(   9) C  28                  0.00006     1.65207   
   595. RY*(  10) C  28                  0.00001     1.48943   
   596. RY*(  11) C  28                  0.00001     0.58249   
   597. RY*(  12) C  28                  0.00001     2.58095   
   598. RY*(  13) C  28                  0.00000    21.64822   
   599. RY*(  14) C  28                  0.00001     0.46601   
   600. RY*(  15) C  28                  0.00001     1.82738   
   601. RY*(  16) C  28                  0.00000     2.62691   
   602. RY*(  17) C  28                  0.00001     1.62133   
   603. RY*(   1) C  29                  0.00548     1.30591   
   604. RY*(   2) C  29                  0.00202     1.10071   
   605. RY*(   3) C  29                  0.00091     0.82453   
   606. RY*(   4) C  29                  0.00080     0.83268   
   607. RY*(   5) C  29                  0.00059     1.51588   
   608. RY*(   6) C  29                  0.00027     1.53838   
   609. RY*(   7) C  29                  0.00015     2.34785   
   610. RY*(   8) C  29                  0.00009     3.35392   
   611. RY*(   9) C  29                  0.00006     1.48150   
   612. RY*(  10) C  29                  0.00007     2.06080   
   613. RY*(  11) C  29                  0.00004     1.53707   
   614. RY*(  12) C  29                  0.00001     1.74271   
   615. RY*(  13) C  29                  0.00002     1.88216   
   616. RY*(  14) C  29                  0.00001     2.26461   
   617. RY*(  15) C  29                  0.00000    20.87161   
   618. RY*(  16) C  29                  0.00000     2.56432   
   619. RY*(  17) C  29                  0.00000     2.93823   
   620. RY*(   1) H  30                  0.00130     0.97018   
   621. RY*(   2) H  30                  0.00027     1.77662   
   622. RY*(   3) H  30                  0.00019     2.11485   
   623. RY*(   4) H  30                  0.00012     2.06037   
   624. RY*(   5) H  30                  0.00008     1.78215   
   625. RY*(   6) H  30                  0.00006     1.34250   
   626. RY*(   1) H  31                  0.00228     0.57139   
   627. RY*(   2) H  31                  0.00024     1.92136   
   628. RY*(   3) H  31                  0.00019     1.68303   
   629. RY*(   4) H  31                  0.00017     1.59809   
   630. RY*(   5) H  31                  0.00013     2.32531   
   631. RY*(   6) H  31                  0.00010     1.91434   
   632. RY*(   1) H  32                  0.00125     0.52826   
   633. RY*(   2) H  32                  0.00037     1.56424   
   634. RY*(   3) H  32                  0.00025     2.09616   
   635. RY*(   4) H  32                  0.00011     1.97450   
   636. RY*(   5) H  32                  0.00007     0.75563   
   637. RY*(   6) H  32                  0.00004     2.60967   
   638. RY*(   1) H  33                  0.00084     0.93352   
   639. RY*(   2) H  33                  0.00022     1.70424   
   640. RY*(   3) H  33                  0.00017     1.94852   
   641. RY*(   4) H  33                  0.00012     1.93790   
   642. RY*(   5) H  33                  0.00004     0.36098   
   643. RY*(   6) H  33                  0.00004     2.46171   
   644. RY*(   1) H  34                  0.00081     0.80819   
   645. RY*(   2) H  34                  0.00021     2.23376   
   646. RY*(   3) H  34                  0.00019     1.58940   
   647. RY*(   4) H  34                  0.00013     1.80644   
   648. RY*(   5) H  34                  0.00005     0.50835   
   649. RY*(   6) H  34                  0.00003     2.41603   
   650. RY*(   1) H  35                  0.00083     0.78291   
   651. RY*(   2) H  35                  0.00021     1.75454   
   652. RY*(   3) H  35                  0.00019     1.95501   
   653. RY*(   4) H  35                  0.00013     1.89331   
   654. RY*(   5) H  35                  0.00005     0.54920   
   655. RY*(   6) H  35                  0.00004     2.41682   
   656. RY*(   1) H  36                  0.00160     0.87117   
   657. RY*(   2) H  36                  0.00068     1.75820   
   658. RY*(   3) H  36                  0.00039     2.00831   
   659. RY*(   4) H  36                  0.00020     2.50549   
   660. RY*(   5) H  36                  0.00007     1.88368   
   661. RY*(   6) H  36                  0.00005     1.55580   
   662. RY*(   1) H  37                  0.00178     1.73388   
   663. RY*(   2) H  37                  0.00126     1.82893   
   664. RY*(   3) H  37                  0.00070     1.67408   
   665. RY*(   4) H  37                  0.00025     1.34521   
   666. RY*(   5) H  37                  0.00011     0.39579   
   667. RY*(   6) H  37                  0.00001     2.46421   
   668. RY*(   1) H  38                  0.00092     0.64523   
   669. RY*(   2) H  38                  0.00016     1.95585   
   670. RY*(   3) H  38                  0.00012     1.72244   
   671. RY*(   4) H  38                  0.00009     1.41051   
   672. RY*(   5) H  38                  0.00005     0.91602   
   673. RY*(   6) H  38                  0.00002     2.44932   
   674. RY*(   1) H  39                  0.00097     0.64358   
   675. RY*(   2) H  39                  0.00018     1.82297   
   676. RY*(   3) H  39                  0.00014     1.78585   
   677. RY*(   4) H  39                  0.00009     1.23371   
   678. RY*(   5) H  39                  0.00005     1.28565   
   679. RY*(   6) H  39                  0.00004     2.41061   
   680. RY*(   1) H  40                  0.00091     0.63621   
   681. RY*(   2) H  40                  0.00016     1.92301   
   682. RY*(   3) H  40                  0.00012     1.74728   
   683. RY*(   4) H  40                  0.00009     1.39121   
   684. RY*(   5) H  40                  0.00005     1.04429   
   685. RY*(   6) H  40                  0.00002     2.35699   
   686. RY*(   1) H  41                  0.00081     1.09064   
   687. RY*(   2) H  41                  0.00023     1.87853   
   688. RY*(   3) H  41                  0.00019     1.65288   
   689. RY*(   4) H  41                  0.00013     2.01299   
   690. RY*(   5) H  41                  0.00004     2.47928   
   691. RY*(   1) H  42                  0.00150     0.46121   
   692. RY*(   2) H  42                  0.00031     2.37479   
   693. RY*(   3) H  42                  0.00019     1.66194   
   694. RY*(   4) H  42                  0.00013     1.78037   
   695. RY*(   5) H  42                  0.00007     0.85493   
   696. RY*(   6) H  42                  0.00004     2.27487   
   697. RY*(   1) H  43                  0.00188     0.58370   
   698. RY*(   2) H  43                  0.00033     2.33363   
   699. RY*(   3) H  43                  0.00018     1.64019   
   700. RY*(   4) H  43                  0.00012     2.02824   
   701. RY*(   5) H  43                  0.00004     2.62100   
   702. RY*(   6) H  43                  0.00004     0.34514   
   703. RY*(   1) H  44                  0.00099     1.38203   
   704. RY*(   2) H  44                  0.00024     1.58259   
   705. RY*(   3) H  44                  0.00019     1.42844   
   706. RY*(   4) H  44                  0.00013     1.93803   
   707. RY*(   5) H  44                  0.00005     2.52704   
   708. RY*(   6) H  44                  0.00006     0.70829   
   709. RY*(   1) H  45                  0.00136     0.46730   
   710. RY*(   2) H  45                  0.00031     2.40240   
   711. RY*(   3) H  45                  0.00019     1.63312   
   712. RY*(   4) H  45                  0.00013     1.99397   
   713. RY*(   5) H  45                  0.00005     0.27384   
   714. RY*(   6) H  45                  0.00004     2.63893   
   715. RY*(   1) H  46                  0.00084     0.65416   
   716. RY*(   2) H  46                  0.00020     2.32767   
   717. RY*(   3) H  46                  0.00019     1.60269   
   718. RY*(   4) H  46                  0.00011     1.96755   
   719. RY*(   5) H  46                  0.00004     2.46073   
   720. RY*(   6) H  46                  0.00002     0.21463   
   721. RY*(   1) H  47                  0.00076     0.67401   
   722. RY*(   2) H  47                  0.00020     1.59269   
   723. RY*(   3) H  47                  0.00019     2.35032   
   724. RY*(   4) H  47                  0.00012     1.97053   
   725. RY*(   5) H  47                  0.00003     2.45811   
   726. RY*(   6) H  47                  0.00001     0.18269   
   727. RY*(   1) H  48                  0.00083     0.65543   
   728. RY*(   2) H  48                  0.00020     2.32364   
   729. RY*(   3) H  48                  0.00019     1.60440   
   730. RY*(   4) H  48                  0.00011     1.97607   
   731. RY*(   5) H  48                  0.00004     2.49007   
   732. RY*(   6) H  48                  0.00002     0.19703   
   733. RY*(   1) H  49                  0.00139     0.44774   
   734. RY*(   2) H  49                  0.00033     2.36671   
   735. RY*(   3) H  49                  0.00019     0.23362   
   736. RY*(   4) H  49                  0.00013     0.47404   
   737. RY*(   5) H  49                  0.00006     0.36148   
   738. RY*(   6) H  49                  0.00004     1.23265   
   739. BD*(   1) C   1 - C   2          0.02682     0.54478   
   740. BD*(   2) C   1 - C   2          0.39469     0.00223  746(v),751(v),757(r),118(g)
                                                    755(v),152(v),137(g),754(v)
                                                    136(g)
   741. BD*(   1) C   1 - C   6          0.01383     0.56073   
   742. BD*(   1) C   1 - H  32          0.01325     0.41780   
   743. BD*(   1) C   2 - C   3          0.02451     0.54323   
   744. BD*(   1) C   2 - N   7          0.03013     0.38309   
   745. BD*(   1) C   3 - C   4          0.01338     0.56333   
   746. BD*(   2) C   3 - C   4          0.32398     0.01005  740(v),751(v),170(g),152(g)
                                                    153(g),169(g)
   747. BD*(   1) C   3 - H  33          0.01275     0.41652   
   748. BD*(   1) C   4 - C   5          0.02410     0.56021   
   749. BD*(   1) C   4 - H  34          0.01392     0.42267   
   750. BD*(   1) C   5 - C   6          0.02372     0.56387   
   751. BD*(   2) C   5 - C   6          0.34024     0.01850  746(v),740(v),203(g),775(v)
                                                    169(v)
   752. BD*(   1) C   5 - C  18          0.01575     0.40423   
   753. BD*(   1) C   6 - H  35          0.01408     0.42227   
   754. BD*(   1) N   7 - C   8          0.02801     0.46147   
   755. BD*(   1) N   7 - H  36          0.02390     0.36447   
   756. BD*(   1) C   8 - C   9          0.02485     0.59153   
   757. BD*(   2) C   8 - C   9          0.30675     0.00175  766(v),740(r),254(g),762(v)
                                                    763(v),238(g),218(v),802(r)
                                                    804(r)
   758. BD*(   1) C   8 - C  10          0.03752     0.35971   
   759. BD*(   1) C   9 - C  11          0.07612     0.44180   
   760. BD*(   1) C   9 -Br  13          0.03137     0.08986   
   761. BD*(   1) C  10 - O  12          0.02809     0.24998   
   762. BD*(   1) C  10 - C  15          0.05271     0.32365   
   763. BD*(   1) C  10 - H  30          0.02683     0.37801   
   764. BD*(   1) C  11 - O  12          0.12327     0.30731  761(g),758(v),287(g),762(v)
                                                    756(v),760(v),293(g),315(g)
   765. BD*(   1) C  11 - O  14          0.01308     0.63602   
   766. BD*(   2) C  11 - O  14          0.28703     0.01413  757(v),288(g),351(g),364(g)
   767. BD*(   1) C  15 - C  16          0.03630     0.39790   
   768. BD*(   1) C  15 - O  17          0.03129     0.27316   
   769. BD*(   1) C  15 - H  31          0.02358     0.37970   
   770. BD*(   1) C  16 - C  19          0.02255     0.56846   
   771. BD*(   2) C  16 - C  19          0.35811     0.02763  785(v),780(v),768(v),437(g)
                                                    762(v),504(v)
   772. BD*(   1) C  16 - C  23          0.02581     0.56676   
   773. BD*(   1) O  17 - H  37          0.00954     0.42313   
   774. BD*(   1) C  18 - H  38          0.00477     0.38925   
   775. BD*(   1) C  18 - H  39          0.01029     0.38474   
   776. BD*(   1) C  18 - H  40          0.00602     0.38865   
   777. BD*(   1) C  19 - C  20          0.01410     0.57638   
   778. BD*(   1) C  19 - H  41          0.01458     0.42990   
   779. BD*(   1) C  20 - C  21          0.02451     0.56106   
   780. BD*(   2) C  20 - C  21          0.35595     0.02886  771(v),785(v),790(v),454(g)
                                                    788(v),488(v),804(r)
   781. BD*(   1) C  20 - H  42          0.01396     0.43482   
   782. BD*(   1) C  21 - C  22          0.02499     0.54324   
   783. BD*(   1) C  21 - C  24          0.03162     0.45413   
   784. BD*(   1) C  22 - C  23          0.01541     0.56686   
   785. BD*(   2) C  22 - C  23          0.30878     0.02722  771(v),780(v),488(g),504(g)
                                                    505(g)
   786. BD*(   1) C  22 - H  43          0.01413     0.43893   
   787. BD*(   1) C  23 - H  44          0.01496     0.45239   
   788. BD*(   1) C  24 - C  25          0.02507     0.55322   
   789. BD*(   1) C  24 - C  29          0.02501     0.55175   
   790. BD*(   2) C  24 - C  29          0.36157     0.03131  792(v),797(v),780(v),605(g)
                                                    735(v),782(v),800(v)
   791. BD*(   1) C  25 - C  26          0.01513     0.57796   
   792. BD*(   2) C  25 - C  26          0.32395     0.03477  790(v),797(v),554(g),538(g)
                                                    799(r),802(r)
   793. BD*(   1) C  25 - H  45          0.01405     0.44101   
   794. BD*(   1) C  26 - C  27          0.01635     0.57782   
   795. BD*(   1) C  26 - H  46          0.01358     0.44025   
   796. BD*(   1) C  27 - C  28          0.01634     0.57419   
   797. BD*(   2) C  27 - C  28          0.33554     0.02678  790(v),792(v),571(g),588(g)
                                                    582(g)
   798. BD*(   1) C  27 - H  47          0.01365     0.45076   
   799. BD*(   1) C  28 - C  29          0.01511     3.61054   
   800. BD*(   1) C  28 - H  48          0.01356     2.57994   
   801. BD*(   1) C  29 - H  49          0.01403     3.18083   
       -------------------------------
              Total Lewis  224.66107  ( 97.6787%)
        Valence non-Lewis    4.90888  (  2.1343%)
        Rydberg non-Lewis    0.43005  (  0.1870%)
       -------------------------------
            Total unit  1  230.00000  (100.0000%)
           Charge unit  1    0.00000
 Leave Link  607 at Mon Jul 08 03:52:45 2019, MaxMem=   209715200 cpu:        41.0
 (Enter C:\G09W\l9999.exe)
 1|1|UNPC-CCSC-01038015|FOpt|RB3LYP|6-311++G(d,p)|C24H20Br1N1O3|PERFIL|
 08-Jul-2019|0||#p opt b3lyp/6-311++g(d,p) pop=nbo geom=connectivity||9
 q.log||0,1|C,1.8192690811,2.4157942398,-1.1881776189|C,2.5439993946,2.
 1129348947,-0.0333437885|C,2.7145836393,3.1019522548,0.94044909|C,2.15
 78866187,4.3635149158,0.7619947844|C,1.4004210028,4.6726047128,-0.3740
 749684|C,1.2451099711,3.6754227925,-1.3414399001|N,3.1592893501,0.8471
 280342,0.1564083729|C,2.648810397,-0.3827208708,-0.0980877018|C,3.3222
 094511,-1.5576516054,-0.1132532969|C,1.1785517128,-0.692167872,-0.3120
 214586|C,2.411011822,-2.6675025094,-0.3477306779|O,1.1405734964,-2.115
 5231572,-0.4995389459|Br,5.1715499587,-1.7796510974,0.1696167506|O,2.5
 949983716,-3.8489079035,-0.4233484001|C,0.2814957562,-0.2971528347,0.8
 918788218|C,-1.2064739145,-0.3942145231,0.5961625928|O,0.6645955027,-1
 .0227488821,2.054451021|C,0.7615853299,6.029772731,-0.5386576936|C,-2.
 030955522,0.6961467292,0.8883974501|C,-3.4046157551,0.6378286261,0.675
 2618929|C,-4.0056792445,-0.51999606,0.1633439776|C,-3.1752920799,-1.61
 20976206,-0.1279525007|C,-1.8012613636,-1.5532758566,0.0809762429|C,-5
 .4717744502,-0.5883969504,-0.0624411064|C,-6.3692126709,-0.0217907508,
 0.8551187719|C,-7.743993764,-0.0858192833,0.6442517672|C,-8.2520184937
 ,-0.7184826701,-0.4891625658|C,-7.3724974684,-1.2865423424,-1.40939803
 5|C,-5.9977862304,-1.2222004342,-1.1981067546|H,0.7877378818,-0.228438
 6159,-1.2196861203|H,0.5066005564,0.7446898366,1.1266028694|H,1.728685
 6093,1.684114603,-1.9815084186|H,3.2766564368,2.8755503466,1.840006088
 8|H,2.307093,5.1178032989,1.5277588475|H,0.6856940349,3.8905009636,-2.
 2459244745|H,4.117109729,0.8539132568,0.4835523288|H,0.4186877154,-1.9
 477445571,1.9325538814|H,0.5615352863,6.2505403113,-1.589238716|H,-0.1
 932462754,6.0818603423,-0.004284242|H,1.4005129978,6.8221836071,-0.141
 6108316|H,-1.5930094356,1.6065589994,1.2848948861|H,-4.0142423279,1.50
 82356014,0.8898646917|H,-3.6123064518,-2.5298155935,-0.5047447838|H,-1
 .1920282711,-2.4159109783,-0.1596898518|H,-5.9878082542,0.4497018365,1
 .7538362432|H,-8.4195842103,0.3502859482,1.3718079145|H,-9.3224089711,
 -0.7691727797,-0.6532082969|H,-7.7566145586,-1.7744825256,-2.298360083
 |H,-5.3239333904,-1.6478046087,-1.9330650555||Version=IA32W-G09RevD.01
 |State=1-A|HF=-3781.4970826|RMSD=8.096e-009|RMSF=3.431e-006|Dipole=-0.
 7845092,2.9208217,-0.1935726|Quadrupole=5.4412615,-4.1019855,-1.339276
 ,13.1097316,3.375575,1.7762213|PG=C01 [X(C24H20Br1N1O3)]||@


 WE MIGHT AS WELL ATTEMPT TO INTRODUCE A NEW PLANET 
 INTO THE SOLAR SYSTEM, OR TO ANNIHILATE ONE ALREADYIN EXISTENCE, 
 AS TO CREATE OR DESTROY A PARTICLE OF HYDROGEN.
 ALL THE CHANGES WE CAN PRODUCE CONSIST IN SEPARATING PARTICLES
 THAT ARE IN A STATE OF ... COMBINATION, AND JOINING 
 THOSE THAT WERE PREVIOUSLY AT A DISTANCE.

                                    -- JOHN DALTON, 1810
 Job cpu time:       0 days 16 hours 37 minutes 39.0 seconds.
 File lengths (MBytes):  RWF=    379 Int=      0 D2E=      0 Chk=     42 Scr=      1
 Normal termination of Gaussian 09 at Mon Jul 08 03:52:45 2019.
