 Entering Link 1 = C:\G09W\l1.exe PID=     54020.
  
 Copyright (c) 1988,1990,1992,1993,1995,1998,2003,2009,2013,
            Gaussian, Inc.  All Rights Reserved.
  
 This is part of the Gaussian(R) 09 program.  It is based on
 the Gaussian(R) 03 system (copyright 2003, Gaussian, Inc.),
 the Gaussian(R) 98 system (copyright 1998, Gaussian, Inc.),
 the Gaussian(R) 94 system (copyright 1995, Gaussian, Inc.),
 the Gaussian 92(TM) system (copyright 1992, Gaussian, Inc.),
 the Gaussian 90(TM) system (copyright 1990, Gaussian, Inc.),
 the Gaussian 88(TM) system (copyright 1988, Gaussian, Inc.),
 the Gaussian 86(TM) system (copyright 1986, Carnegie Mellon
 University), and the Gaussian 82(TM) system (copyright 1983,
 Carnegie Mellon University). Gaussian is a federally registered
 trademark of Gaussian, Inc.
  
 This software contains proprietary and confidential information,
 including trade secrets, belonging to Gaussian, Inc.
  
 This software is provided under written license and may be
 used, copied, transmitted, or stored only in accord with that
 written license.
  
 The following legend is applicable only to US Government
 contracts under FAR:
  
                    RESTRICTED RIGHTS LEGEND
  
 Use, reproduction and disclosure by the US Government is
 subject to restrictions as set forth in subparagraphs (a)
 and (c) of the Commercial Computer Software - Restricted
 Rights clause in FAR 52.227-19.
  
 Gaussian, Inc.
 340 Quinnipiac St., Bldg. 40, Wallingford CT 06492
  
  
 ---------------------------------------------------------------
 Warning -- This program may not be used in any manner that
 competes with the business of Gaussian, Inc. or will provide
 assistance to any competitor of Gaussian, Inc.  The licensee
 of this program is prohibited from giving any competitor of
 Gaussian, Inc. access to this program.  By using this program,
 the user acknowledges that Gaussian, Inc. is engaged in the
 business of creating and licensing software in the field of
 computational chemistry and represents and warrants to the
 licensee that it is not a competitor of Gaussian, Inc. and that
 it will not use this program in any manner prohibited above.
 ---------------------------------------------------------------
  

 Cite this work as:
 Gaussian 09, Revision D.01,
 M. J. Frisch, G. W. Trucks, H. B. Schlegel, G. E. Scuseria, 
 M. A. Robb, J. R. Cheeseman, G. Scalmani, V. Barone, B. Mennucci, 
 G. A. Petersson, H. Nakatsuji, M. Caricato, X. Li, H. P. Hratchian, 
 A. F. Izmaylov, J. Bloino, G. Zheng, J. L. Sonnenberg, M. Hada, 
 M. Ehara, K. Toyota, R. Fukuda, J. Hasegawa, M. Ishida, T. Nakajima, 
 Y. Honda, O. Kitao, H. Nakai, T. Vreven, J. A. Montgomery, Jr., 
 J. E. Peralta, F. Ogliaro, M. Bearpark, J. J. Heyd, E. Brothers, 
 K. N. Kudin, V. N. Staroverov, T. Keith, R. Kobayashi, J. Normand, 
 K. Raghavachari, A. Rendell, J. C. Burant, S. S. Iyengar, J. Tomasi, 
 M. Cossi, N. Rega, J. M. Millam, M. Klene, J. E. Knox, J. B. Cross, 
 V. Bakken, C. Adamo, J. Jaramillo, R. Gomperts, R. E. Stratmann, 
 O. Yazyev, A. J. Austin, R. Cammi, C. Pomelli, J. W. Ochterski, 
 R. L. Martin, K. Morokuma, V. G. Zakrzewski, G. A. Voth, 
 P. Salvador, J. J. Dannenberg, S. Dapprich, A. D. Daniels, 
 O. Farkas, J. B. Foresman, J. V. Ortiz, J. Cioslowski, 
 and D. J. Fox, Gaussian, Inc., Wallingford CT, 2013.
 
 ******************************************
 Gaussian 09:  IA32W-G09RevD.01 24-Apr-2013
                08-Jul-2019 
 ******************************************
 %nprocshared=4
 Will use up to    4 processors via shared memory.
 %mem=1600MB
 ----------------------------------------------------
 #p opt b3lyp/6-311++g(d,p) pop=nbo geom=connectivity
 ----------------------------------------------------
 1/14=-1,18=20,19=15,26=3,38=1,57=2/1,3;
 2/9=110,12=2,17=6,18=5,40=1/2;
 3/5=4,6=6,7=1111,11=2,16=1,25=1,30=1,71=1,74=-5/1,2,3;
 4//1;
 5/5=2,38=5/2;
 6/7=2,8=2,9=2,10=2,28=1,40=1/1,7;
 7//1,2,3,16;
 1/14=-1,18=20,19=15,26=3/3(2);
 2/9=110/2;
 99//99;
 2/9=110/2;
 3/5=4,6=6,7=1111,11=2,16=1,25=1,30=1,71=1,74=-5/1,2,3;
 4/5=5,16=3,69=1/1;
 5/5=2,38=5/2;
 7//1,2,3,16;
 1/14=-1,18=20,19=15,26=3/3(-5);
 2/9=110/2;
 6/7=2,8=2,9=2,10=2,19=2,28=1,40=1/1,7;
 99/9=1/99;
 Leave Link    1 at Mon Jul 08 03:52:46 2019, MaxMem=   209715200 cpu:         1.0
 (Enter C:\G09W\l101.exe)
 ------
 9r.log
 ------
 Symbolic Z-matrix:
 Charge =  0 Multiplicity = 1
 C                     2.09017   1.72889  -1.11181 
 C                     2.57285   1.27738   0.10781 
 C                     2.57952   2.1334    1.20065 
 C                     2.10284   3.42612   1.07982 
 C                     1.60194   3.85452  -0.13662 
 C                     1.58942   3.0144   -1.23343 
 N                     3.09985  -0.0311    0.25489 
 C                     2.49923  -1.18765  -0.09908 
 C                     3.06667  -2.38207  -0.26858 
 C                     1.00485  -1.35244  -0.29935 
 C                     2.04584  -3.37414  -0.58248 
 O                     0.86347  -2.71576  -0.63441 
 Br                    4.87956  -2.79336  -0.10585 
 O                     2.13241  -4.53405  -0.77725 
 C                     0.17868  -1.04583   0.96425 
 C                    -1.31599  -1.00919   0.68871 
 O                     0.53701  -1.92377   1.98843 
 C                    -2.01811   0.17123   0.88294 
 C                    -3.38214   0.23921   0.65349 
 C                    -4.08952  -0.87877   0.22768 
 C                    -3.38284  -2.06413   0.03533 
 C                    -2.02048  -2.12999   0.25791 
 C                    -5.55831  -0.81241  -0.01689 
 C                    -6.40384  -0.17879   0.89009 
 C                    -7.76795  -0.11632   0.66267 
 C                    -8.31195  -0.68664  -0.47618 
 C                    -7.48127  -1.32009  -1.38557 
 C                    -6.11723  -1.38239  -1.15787 
 Br                    0.92981   5.61842  -0.30146 
 H                     0.64443  -0.75753  -1.12784 
 H                     0.4712   -0.06405   1.30912 
 H                     2.11959   1.08614  -1.97288 
 H                     2.95082   1.78101   2.14593 
 H                     2.10976   4.08766   1.92488 
 H                     1.21078   3.36067  -2.17604 
 H                     4.07023  -0.10496   0.46932 
 H                     0.19415  -2.78577   1.81293 
 H                    -1.49902   1.05425   1.2145 
 H                    -3.89493   1.17388   0.79355 
 H                    -3.90649  -2.94949  -0.27772 
 H                    -1.50982  -3.05923   0.08324 
 H                    -5.99498   0.24905   1.78816 
 H                    -8.40561   0.37121   1.37898 
 H                    -9.37186  -0.63854  -0.65281 
 H                    -7.89321  -1.76075  -2.27634 
 H                    -5.47964  -1.85997  -1.88048 
 
 NAtoms=     46 NQM=       46 NQMF=       0 NMMI=      0 NMMIF=      0
                NMic=       0 NMicF=      0.
                    Isotopes and Nuclear Properties:
 (Nuclear quadrupole moments (NQMom) in fm**2, nuclear magnetic moments (NMagM)
  in nuclear magnetons)

  Atom         1           2           3           4           5           6           7           8           9          10
 IAtWgt=          12          12          12          12          12          12          14          12          12          12
 AtmWgt=  12.0000000  12.0000000  12.0000000  12.0000000  12.0000000  12.0000000  14.0030740  12.0000000  12.0000000  12.0000000
 NucSpn=           0           0           0           0           0           0           2           0           0           0
 AtZEff=   0.0000000   0.0000000   0.0000000   0.0000000   0.0000000   0.0000000   0.0000000   0.0000000   0.0000000   0.0000000
 NQMom=    0.0000000   0.0000000   0.0000000   0.0000000   0.0000000   0.0000000   2.0440000   0.0000000   0.0000000   0.0000000
 NMagM=    0.0000000   0.0000000   0.0000000   0.0000000   0.0000000   0.0000000   0.4037610   0.0000000   0.0000000   0.0000000
 AtZNuc=   6.0000000   6.0000000   6.0000000   6.0000000   6.0000000   6.0000000   7.0000000   6.0000000   6.0000000   6.0000000

  Atom        11          12          13          14          15          16          17          18          19          20
 IAtWgt=          12          16          79          16          12          12          16          12          12          12
 AtmWgt=  12.0000000  15.9949146  78.9183361  15.9949146  12.0000000  12.0000000  15.9949146  12.0000000  12.0000000  12.0000000
 NucSpn=           0           0           3           0           0           0           0           0           0           0
 AtZEff=   0.0000000   0.0000000   0.0000000   0.0000000   0.0000000   0.0000000   0.0000000   0.0000000   0.0000000   0.0000000
 NQMom=    0.0000000   0.0000000  31.3000000   0.0000000   0.0000000   0.0000000   0.0000000   0.0000000   0.0000000   0.0000000
 NMagM=    0.0000000   0.0000000   2.1063990   0.0000000   0.0000000   0.0000000   0.0000000   0.0000000   0.0000000   0.0000000
 AtZNuc=   6.0000000   8.0000000  35.0000000   8.0000000   6.0000000   6.0000000   8.0000000   6.0000000   6.0000000   6.0000000

  Atom        21          22          23          24          25          26          27          28          29          30
 IAtWgt=          12          12          12          12          12          12          12          12          79           1
 AtmWgt=  12.0000000  12.0000000  12.0000000  12.0000000  12.0000000  12.0000000  12.0000000  12.0000000  78.9183361   1.0078250
 NucSpn=           0           0           0           0           0           0           0           0           3           1
 AtZEff=   0.0000000   0.0000000   0.0000000   0.0000000   0.0000000   0.0000000   0.0000000   0.0000000   0.0000000   0.0000000
 NQMom=    0.0000000   0.0000000   0.0000000   0.0000000   0.0000000   0.0000000   0.0000000   0.0000000  31.3000000   0.0000000
 NMagM=    0.0000000   0.0000000   0.0000000   0.0000000   0.0000000   0.0000000   0.0000000   0.0000000   2.1063990   2.7928460
 AtZNuc=   6.0000000   6.0000000   6.0000000   6.0000000   6.0000000   6.0000000   6.0000000   6.0000000  35.0000000   1.0000000

  Atom        31          32          33          34          35          36          37          38          39          40
 IAtWgt=           1           1           1           1           1           1           1           1           1           1
 AtmWgt=   1.0078250   1.0078250   1.0078250   1.0078250   1.0078250   1.0078250   1.0078250   1.0078250   1.0078250   1.0078250
 NucSpn=           1           1           1           1           1           1           1           1           1           1
 AtZEff=   0.0000000   0.0000000   0.0000000   0.0000000   0.0000000   0.0000000   0.0000000   0.0000000   0.0000000   0.0000000
 NQMom=    0.0000000   0.0000000   0.0000000   0.0000000   0.0000000   0.0000000   0.0000000   0.0000000   0.0000000   0.0000000
 NMagM=    2.7928460   2.7928460   2.7928460   2.7928460   2.7928460   2.7928460   2.7928460   2.7928460   2.7928460   2.7928460
 AtZNuc=   1.0000000   1.0000000   1.0000000   1.0000000   1.0000000   1.0000000   1.0000000   1.0000000   1.0000000   1.0000000

  Atom        41          42          43          44          45          46
 IAtWgt=           1           1           1           1           1           1
 AtmWgt=   1.0078250   1.0078250   1.0078250   1.0078250   1.0078250   1.0078250
 NucSpn=           1           1           1           1           1           1
 AtZEff=   0.0000000   0.0000000   0.0000000   0.0000000   0.0000000   0.0000000
 NQMom=    0.0000000   0.0000000   0.0000000   0.0000000   0.0000000   0.0000000
 NMagM=    2.7928460   2.7928460   2.7928460   2.7928460   2.7928460   2.7928460
 AtZNuc=   1.0000000   1.0000000   1.0000000   1.0000000   1.0000000   1.0000000
 Leave Link  101 at Mon Jul 08 03:52:46 2019, MaxMem=   209715200 cpu:         0.0
 (Enter C:\G09W\l103.exe)

 GradGradGradGradGradGradGradGradGradGradGradGradGradGradGradGradGradGrad
 Berny optimization.
 Initialization pass.
                           ----------------------------
                           !    Initial Parameters    !
                           ! (Angstroms and Degrees)  !
 --------------------------                            --------------------------
 ! Name  Definition              Value          Derivative Info.                !
 --------------------------------------------------------------------------------
 ! R1    R(1,2)                  1.3872         estimate D2E/DX2                !
 ! R2    R(1,6)                  1.385          estimate D2E/DX2                !
 ! R3    R(1,32)                 1.0749         estimate D2E/DX2                !
 ! R4    R(2,3)                  1.3882         estimate D2E/DX2                !
 ! R5    R(2,7)                  1.4183         estimate D2E/DX2                !
 ! R6    R(3,4)                  1.3831         estimate D2E/DX2                !
 ! R7    R(3,33)                 1.075          estimate D2E/DX2                !
 ! R8    R(4,5)                  1.3835         estimate D2E/DX2                !
 ! R9    R(4,34)                 1.0732         estimate D2E/DX2                !
 ! R10   R(5,6)                  1.3816         estimate D2E/DX2                !
 ! R11   R(5,29)                 1.8948         estimate D2E/DX2                !
 ! R12   R(6,35)                 1.0732         estimate D2E/DX2                !
 ! R13   R(7,8)                  1.3504         estimate D2E/DX2                !
 ! R14   R(7,36)                 0.9965         estimate D2E/DX2                !
 ! R15   R(8,9)                  1.3332         estimate D2E/DX2                !
 ! R16   R(8,10)                 1.5167         estimate D2E/DX2                !
 ! R17   R(9,11)                 1.4577         estimate D2E/DX2                !
 ! R18   R(9,13)                 1.8661         estimate D2E/DX2                !
 ! R19   R(10,12)                1.411          estimate D2E/DX2                !
 ! R20   R(10,15)                1.5405         estimate D2E/DX2                !
 ! R21   R(10,30)                1.0818         estimate D2E/DX2                !
 ! R22   R(11,12)                1.3543         estimate D2E/DX2                !
 ! R23   R(11,14)                1.1793         estimate D2E/DX2                !
 ! R24   R(15,16)                1.5203         estimate D2E/DX2                !
 ! R25   R(15,17)                1.3957         estimate D2E/DX2                !
 ! R26   R(15,31)                1.0809         estimate D2E/DX2                !
 ! R27   R(16,18)                1.3871         estimate D2E/DX2                !
 ! R28   R(16,22)                1.3922         estimate D2E/DX2                !
 ! R29   R(17,37)                0.9441         estimate D2E/DX2                !
 ! R30   R(18,19)                1.3849         estimate D2E/DX2                !
 ! R31   R(18,38)                1.0766         estimate D2E/DX2                !
 ! R32   R(19,20)                1.3898         estimate D2E/DX2                !
 ! R33   R(19,39)                1.0753         estimate D2E/DX2                !
 ! R34   R(20,21)                1.3934         estimate D2E/DX2                !
 ! R35   R(20,23)                1.4905         estimate D2E/DX2                !
 ! R36   R(21,22)                1.382          estimate D2E/DX2                !
 ! R37   R(21,40)                1.0752         estimate D2E/DX2                !
 ! R38   R(22,41)                1.0746         estimate D2E/DX2                !
 ! R39   R(23,24)                1.3925         estimate D2E/DX2                !
 ! R40   R(23,28)                1.3925         estimate D2E/DX2                !
 ! R41   R(24,25)                1.3844         estimate D2E/DX2                !
 ! R42   R(24,42)                1.0755         estimate D2E/DX2                !
 ! R43   R(25,26)                1.385          estimate D2E/DX2                !
 ! R44   R(25,43)                1.0758         estimate D2E/DX2                !
 ! R45   R(26,27)                1.385          estimate D2E/DX2                !
 ! R46   R(26,44)                1.0756         estimate D2E/DX2                !
 ! R47   R(27,28)                1.3843         estimate D2E/DX2                !
 ! R48   R(27,45)                1.0758         estimate D2E/DX2                !
 ! R49   R(28,46)                1.0755         estimate D2E/DX2                !
 ! A1    A(2,1,6)              120.3399         estimate D2E/DX2                !
 ! A2    A(2,1,32)             120.0099         estimate D2E/DX2                !
 ! A3    A(6,1,32)             119.6413         estimate D2E/DX2                !
 ! A4    A(1,2,3)              119.5447         estimate D2E/DX2                !
 ! A5    A(1,2,7)              121.3828         estimate D2E/DX2                !
 ! A6    A(3,2,7)              119.0439         estimate D2E/DX2                !
 ! A7    A(2,3,4)              120.392          estimate D2E/DX2                !
 ! A8    A(2,3,33)             119.457          estimate D2E/DX2                !
 ! A9    A(4,3,33)             120.1488         estimate D2E/DX2                !
 ! A10   A(3,4,5)              119.4063         estimate D2E/DX2                !
 ! A11   A(3,4,34)             120.3391         estimate D2E/DX2                !
 ! A12   A(5,4,34)             120.2502         estimate D2E/DX2                !
 ! A13   A(4,5,6)              120.8621         estimate D2E/DX2                !
 ! A14   A(4,5,29)             119.5488         estimate D2E/DX2                !
 ! A15   A(6,5,29)             119.5888         estimate D2E/DX2                !
 ! A16   A(1,6,5)              119.4331         estimate D2E/DX2                !
 ! A17   A(1,6,35)             120.2768         estimate D2E/DX2                !
 ! A18   A(5,6,35)             120.2815         estimate D2E/DX2                !
 ! A19   A(2,7,8)              126.7052         estimate D2E/DX2                !
 ! A20   A(2,7,36)             116.9048         estimate D2E/DX2                !
 ! A21   A(8,7,36)             115.2154         estimate D2E/DX2                !
 ! A22   A(7,8,9)              127.6852         estimate D2E/DX2                !
 ! A23   A(7,8,10)             124.4631         estimate D2E/DX2                !
 ! A24   A(9,8,10)             107.7718         estimate D2E/DX2                !
 ! A25   A(8,9,11)             109.8194         estimate D2E/DX2                !
 ! A26   A(8,9,13)             126.8609         estimate D2E/DX2                !
 ! A27   A(11,9,13)            123.3074         estimate D2E/DX2                !
 ! A28   A(8,10,12)            103.5954         estimate D2E/DX2                !
 ! A29   A(8,10,15)            113.4818         estimate D2E/DX2                !
 ! A30   A(8,10,30)            111.6941         estimate D2E/DX2                !
 ! A31   A(12,10,15)           109.4716         estimate D2E/DX2                !
 ! A32   A(12,10,30)           108.4282         estimate D2E/DX2                !
 ! A33   A(15,10,30)           109.88           estimate D2E/DX2                !
 ! A34   A(9,11,12)            106.7863         estimate D2E/DX2                !
 ! A35   A(9,11,14)            130.8086         estimate D2E/DX2                !
 ! A36   A(12,11,14)           122.4037         estimate D2E/DX2                !
 ! A37   A(10,12,11)           111.9084         estimate D2E/DX2                !
 ! A38   A(10,15,16)           112.5434         estimate D2E/DX2                !
 ! A39   A(10,15,17)           109.816          estimate D2E/DX2                !
 ! A40   A(10,15,31)           107.2978         estimate D2E/DX2                !
 ! A41   A(16,15,17)           113.613          estimate D2E/DX2                !
 ! A42   A(16,15,31)           107.5775         estimate D2E/DX2                !
 ! A43   A(17,15,31)           105.529          estimate D2E/DX2                !
 ! A44   A(15,16,18)           119.5228         estimate D2E/DX2                !
 ! A45   A(15,16,22)           122.2893         estimate D2E/DX2                !
 ! A46   A(18,16,22)           118.1841         estimate D2E/DX2                !
 ! A47   A(15,17,37)           110.1609         estimate D2E/DX2                !
 ! A48   A(16,18,19)           121.1396         estimate D2E/DX2                !
 ! A49   A(16,18,38)           119.8041         estimate D2E/DX2                !
 ! A50   A(19,18,38)           119.0559         estimate D2E/DX2                !
 ! A51   A(18,19,20)           120.8373         estimate D2E/DX2                !
 ! A52   A(18,19,39)           119.3939         estimate D2E/DX2                !
 ! A53   A(20,19,39)           119.7627         estimate D2E/DX2                !
 ! A54   A(19,20,21)           117.9356         estimate D2E/DX2                !
 ! A55   A(19,20,23)           121.0664         estimate D2E/DX2                !
 ! A56   A(21,20,23)           120.998          estimate D2E/DX2                !
 ! A57   A(20,21,22)           121.2167         estimate D2E/DX2                !
 ! A58   A(20,21,40)           119.5841         estimate D2E/DX2                !
 ! A59   A(22,21,40)           119.1927         estimate D2E/DX2                !
 ! A60   A(16,22,21)           120.6854         estimate D2E/DX2                !
 ! A61   A(16,22,41)           120.3983         estimate D2E/DX2                !
 ! A62   A(21,22,41)           118.9133         estimate D2E/DX2                !
 ! A63   A(20,23,24)           120.7808         estimate D2E/DX2                !
 ! A64   A(20,23,28)           120.7805         estimate D2E/DX2                !
 ! A65   A(24,23,28)           118.4387         estimate D2E/DX2                !
 ! A66   A(23,24,25)           120.7886         estimate D2E/DX2                !
 ! A67   A(23,24,42)           119.6074         estimate D2E/DX2                !
 ! A68   A(25,24,42)           119.5913         estimate D2E/DX2                !
 ! A69   A(24,25,26)           120.2344         estimate D2E/DX2                !
 ! A70   A(24,25,43)           119.6776         estimate D2E/DX2                !
 ! A71   A(26,25,43)           120.0864         estimate D2E/DX2                !
 ! A72   A(25,26,27)           119.5159         estimate D2E/DX2                !
 ! A73   A(25,26,44)           120.2432         estimate D2E/DX2                !
 ! A74   A(27,26,44)           120.2409         estimate D2E/DX2                !
 ! A75   A(26,27,28)           120.236          estimate D2E/DX2                !
 ! A76   A(26,27,45)           120.0894         estimate D2E/DX2                !
 ! A77   A(28,27,45)           119.6734         estimate D2E/DX2                !
 ! A78   A(23,28,27)           120.7864         estimate D2E/DX2                !
 ! A79   A(23,28,46)           119.6248         estimate D2E/DX2                !
 ! A80   A(27,28,46)           119.5779         estimate D2E/DX2                !
 ! D1    D(6,1,2,3)             -1.4768         estimate D2E/DX2                !
 ! D2    D(6,1,2,7)           -179.5154         estimate D2E/DX2                !
 ! D3    D(32,1,2,3)           177.4355         estimate D2E/DX2                !
 ! D4    D(32,1,2,7)            -0.6031         estimate D2E/DX2                !
 ! D5    D(2,1,6,5)              1.4392         estimate D2E/DX2                !
 ! D6    D(2,1,6,35)          -179.6292         estimate D2E/DX2                !
 ! D7    D(32,1,6,5)          -177.4771         estimate D2E/DX2                !
 ! D8    D(32,1,6,35)            1.4544         estimate D2E/DX2                !
 ! D9    D(1,2,3,4)              0.3206         estimate D2E/DX2                !
 ! D10   D(1,2,3,33)           179.7958         estimate D2E/DX2                !
 ! D11   D(7,2,3,4)            178.4053         estimate D2E/DX2                !
 ! D12   D(7,2,3,33)            -2.1195         estimate D2E/DX2                !
 ! D13   D(1,2,7,8)            -52.3892         estimate D2E/DX2                !
 ! D14   D(1,2,7,36)           114.5639         estimate D2E/DX2                !
 ! D15   D(3,2,7,8)            129.5626         estimate D2E/DX2                !
 ! D16   D(3,2,7,36)           -63.4843         estimate D2E/DX2                !
 ! D17   D(2,3,4,5)              0.8551         estimate D2E/DX2                !
 ! D18   D(2,3,4,34)          -179.9075         estimate D2E/DX2                !
 ! D19   D(33,3,4,5)          -178.6165         estimate D2E/DX2                !
 ! D20   D(33,3,4,34)            0.6209         estimate D2E/DX2                !
 ! D21   D(3,4,5,6)             -0.8959         estimate D2E/DX2                !
 ! D22   D(3,4,5,29)           179.3114         estimate D2E/DX2                !
 ! D23   D(34,4,5,6)           179.866          estimate D2E/DX2                !
 ! D24   D(34,4,5,29)            0.0732         estimate D2E/DX2                !
 ! D25   D(4,5,6,1)             -0.2464         estimate D2E/DX2                !
 ! D26   D(4,5,6,35)          -179.1779         estimate D2E/DX2                !
 ! D27   D(29,5,6,1)           179.5463         estimate D2E/DX2                !
 ! D28   D(29,5,6,35)            0.6148         estimate D2E/DX2                !
 ! D29   D(2,7,8,9)            162.8177         estimate D2E/DX2                !
 ! D30   D(2,7,8,10)           -20.8378         estimate D2E/DX2                !
 ! D31   D(36,7,8,9)            -4.3253         estimate D2E/DX2                !
 ! D32   D(36,7,8,10)          172.0191         estimate D2E/DX2                !
 ! D33   D(7,8,9,11)           177.0505         estimate D2E/DX2                !
 ! D34   D(7,8,9,13)            -1.6979         estimate D2E/DX2                !
 ! D35   D(10,8,9,11)            0.215          estimate D2E/DX2                !
 ! D36   D(10,8,9,13)         -178.5334         estimate D2E/DX2                !
 ! D37   D(7,8,10,12)         -179.1162         estimate D2E/DX2                !
 ! D38   D(7,8,10,15)          -60.4975         estimate D2E/DX2                !
 ! D39   D(7,8,10,30)           64.3816         estimate D2E/DX2                !
 ! D40   D(9,8,10,12)           -2.1535         estimate D2E/DX2                !
 ! D41   D(9,8,10,15)          116.4652         estimate D2E/DX2                !
 ! D42   D(9,8,10,30)         -118.6557         estimate D2E/DX2                !
 ! D43   D(8,9,11,12)            1.9163         estimate D2E/DX2                !
 ! D44   D(8,9,11,14)         -178.5153         estimate D2E/DX2                !
 ! D45   D(13,9,11,12)        -179.2819         estimate D2E/DX2                !
 ! D46   D(13,9,11,14)           0.2864         estimate D2E/DX2                !
 ! D47   D(8,10,12,11)           3.4666         estimate D2E/DX2                !
 ! D48   D(15,10,12,11)       -117.887          estimate D2E/DX2                !
 ! D49   D(30,10,12,11)        122.2464         estimate D2E/DX2                !
 ! D50   D(8,10,15,16)         171.2362         estimate D2E/DX2                !
 ! D51   D(8,10,15,17)         -61.1332         estimate D2E/DX2                !
 ! D52   D(8,10,15,31)          53.0888         estimate D2E/DX2                !
 ! D53   D(12,10,15,16)        -73.5857         estimate D2E/DX2                !
 ! D54   D(12,10,15,17)         54.0449         estimate D2E/DX2                !
 ! D55   D(12,10,15,31)        168.267          estimate D2E/DX2                !
 ! D56   D(30,10,15,16)         45.3867         estimate D2E/DX2                !
 ! D57   D(30,10,15,17)        173.0173         estimate D2E/DX2                !
 ! D58   D(30,10,15,31)        -72.7607         estimate D2E/DX2                !
 ! D59   D(9,11,12,10)          -3.429          estimate D2E/DX2                !
 ! D60   D(14,11,12,10)        176.958          estimate D2E/DX2                !
 ! D61   D(10,15,16,18)       -117.1523         estimate D2E/DX2                !
 ! D62   D(10,15,16,22)         63.5746         estimate D2E/DX2                !
 ! D63   D(17,15,16,18)        117.2528         estimate D2E/DX2                !
 ! D64   D(17,15,16,22)        -62.0203         estimate D2E/DX2                !
 ! D65   D(31,15,16,18)          0.8302         estimate D2E/DX2                !
 ! D66   D(31,15,16,22)       -178.4428         estimate D2E/DX2                !
 ! D67   D(10,15,17,37)        -73.1315         estimate D2E/DX2                !
 ! D68   D(16,15,17,37)         53.9016         estimate D2E/DX2                !
 ! D69   D(31,15,17,37)        171.5181         estimate D2E/DX2                !
 ! D70   D(15,16,18,19)       -179.432          estimate D2E/DX2                !
 ! D71   D(15,16,18,38)          0.7777         estimate D2E/DX2                !
 ! D72   D(22,16,18,19)         -0.1292         estimate D2E/DX2                !
 ! D73   D(22,16,18,38)       -179.9195         estimate D2E/DX2                !
 ! D74   D(15,16,22,21)        179.0837         estimate D2E/DX2                !
 ! D75   D(15,16,22,41)         -1.5532         estimate D2E/DX2                !
 ! D76   D(18,16,22,21)         -0.1986         estimate D2E/DX2                !
 ! D77   D(18,16,22,41)        179.1644         estimate D2E/DX2                !
 ! D78   D(16,18,19,20)          0.349          estimate D2E/DX2                !
 ! D79   D(16,18,19,39)       -178.7456         estimate D2E/DX2                !
 ! D80   D(38,18,19,20)       -179.8591         estimate D2E/DX2                !
 ! D81   D(38,18,19,39)          1.0463         estimate D2E/DX2                !
 ! D82   D(18,19,20,21)         -0.2315         estimate D2E/DX2                !
 ! D83   D(18,19,20,23)        179.8152         estimate D2E/DX2                !
 ! D84   D(39,19,20,21)        178.8598         estimate D2E/DX2                !
 ! D85   D(39,19,20,23)         -1.0935         estimate D2E/DX2                !
 ! D86   D(19,20,21,22)         -0.0966         estimate D2E/DX2                !
 ! D87   D(19,20,21,40)        178.9701         estimate D2E/DX2                !
 ! D88   D(23,20,21,22)        179.8567         estimate D2E/DX2                !
 ! D89   D(23,20,21,40)         -1.0766         estimate D2E/DX2                !
 ! D90   D(19,20,23,24)        -44.9731         estimate D2E/DX2                !
 ! D91   D(19,20,23,28)        135.0152         estimate D2E/DX2                !
 ! D92   D(21,20,23,24)        135.0751         estimate D2E/DX2                !
 ! D93   D(21,20,23,28)        -44.9366         estimate D2E/DX2                !
 ! D94   D(20,21,22,16)          0.315          estimate D2E/DX2                !
 ! D95   D(20,21,22,41)       -179.0574         estimate D2E/DX2                !
 ! D96   D(40,21,22,16)       -178.7553         estimate D2E/DX2                !
 ! D97   D(40,21,22,41)          1.8723         estimate D2E/DX2                !
 ! D98   D(20,23,24,25)        179.9582         estimate D2E/DX2                !
 ! D99   D(20,23,24,42)         -1.3408         estimate D2E/DX2                !
 ! D100  D(28,23,24,25)         -0.0304         estimate D2E/DX2                !
 ! D101  D(28,23,24,42)        178.6706         estimate D2E/DX2                !
 ! D102  D(20,23,28,27)       -179.9581         estimate D2E/DX2                !
 ! D103  D(20,23,28,46)         -1.1624         estimate D2E/DX2                !
 ! D104  D(24,23,28,27)          0.0305         estimate D2E/DX2                !
 ! D105  D(24,23,28,46)        178.8261         estimate D2E/DX2                !
 ! D106  D(23,24,25,26)          0.0088         estimate D2E/DX2                !
 ! D107  D(23,24,25,43)        179.5419         estimate D2E/DX2                !
 ! D108  D(42,24,25,26)       -178.6924         estimate D2E/DX2                !
 ! D109  D(42,24,25,43)          0.8406         estimate D2E/DX2                !
 ! D110  D(24,25,26,27)          0.0133         estimate D2E/DX2                !
 ! D111  D(24,25,26,44)        179.9746         estimate D2E/DX2                !
 ! D112  D(43,25,26,27)       -179.5178         estimate D2E/DX2                !
 ! D113  D(43,25,26,44)          0.4434         estimate D2E/DX2                !
 ! D114  D(25,26,27,28)         -0.0132         estimate D2E/DX2                !
 ! D115  D(25,26,27,45)       -179.6104         estimate D2E/DX2                !
 ! D116  D(44,26,27,28)       -179.9745         estimate D2E/DX2                !
 ! D117  D(44,26,27,45)          0.4284         estimate D2E/DX2                !
 ! D118  D(26,27,28,23)         -0.009          estimate D2E/DX2                !
 ! D119  D(26,27,28,46)       -178.8052         estimate D2E/DX2                !
 ! D120  D(45,27,28,23)        179.5899         estimate D2E/DX2                !
 ! D121  D(45,27,28,46)          0.7937         estimate D2E/DX2                !
 --------------------------------------------------------------------------------
 Trust Radius=3.00D-01 FncErr=1.00D-07 GrdErr=1.00D-06
 Number of steps in this run=    260 maximum allowed number of steps=    276.
 GradGradGradGradGradGradGradGradGradGradGradGradGradGradGradGradGradGrad

 Leave Link  103 at Mon Jul 08 03:52:46 2019, MaxMem=   209715200 cpu:         0.0
 (Enter C:\G09W\l202.exe)
                          Input orientation:                          
 ---------------------------------------------------------------------
 Center     Atomic      Atomic             Coordinates (Angstroms)
 Number     Number       Type             X           Y           Z
 ---------------------------------------------------------------------
      1          6           0        2.090174    1.728888   -1.111812
      2          6           0        2.572854    1.277383    0.107807
      3          6           0        2.579521    2.133399    1.200647
      4          6           0        2.102843    3.426119    1.079816
      5          6           0        1.601940    3.854517   -0.136621
      6          6           0        1.589423    3.014404   -1.233434
      7          7           0        3.099846   -0.031104    0.254888
      8          6           0        2.499231   -1.187649   -0.099075
      9          6           0        3.066669   -2.382074   -0.268584
     10          6           0        1.004853   -1.352442   -0.299350
     11          6           0        2.045845   -3.374140   -0.582479
     12          8           0        0.863466   -2.715757   -0.634405
     13         35           0        4.879563   -2.793362   -0.105849
     14          8           0        2.132412   -4.534053   -0.777250
     15          6           0        0.178680   -1.045831    0.964251
     16          6           0       -1.315990   -1.009188    0.688706
     17          8           0        0.537010   -1.923771    1.988425
     18          6           0       -2.018107    0.171232    0.882941
     19          6           0       -3.382136    0.239205    0.653491
     20          6           0       -4.089519   -0.878767    0.227682
     21          6           0       -3.382844   -2.064127    0.035333
     22          6           0       -2.020480   -2.129990    0.257913
     23          6           0       -5.558310   -0.812413   -0.016885
     24          6           0       -6.403840   -0.178794    0.890086
     25          6           0       -7.767953   -0.116321    0.662670
     26          6           0       -8.311948   -0.686644   -0.476178
     27          6           0       -7.481273   -1.320086   -1.385566
     28          6           0       -6.117226   -1.382393   -1.157870
     29         35           0        0.929811    5.618422   -0.301459
     30          1           0        0.644428   -0.757528   -1.127838
     31          1           0        0.471204   -0.064048    1.309122
     32          1           0        2.119586    1.086144   -1.972878
     33          1           0        2.950820    1.781012    2.145932
     34          1           0        2.109765    4.087661    1.924875
     35          1           0        1.210782    3.360672   -2.176038
     36          1           0        4.070234   -0.104956    0.469316
     37          1           0        0.194147   -2.785770    1.812925
     38          1           0       -1.499019    1.054247    1.214500
     39          1           0       -3.894929    1.173877    0.793552
     40          1           0       -3.906490   -2.949492   -0.277722
     41          1           0       -1.509823   -3.059232    0.083237
     42          1           0       -5.994984    0.249052    1.788156
     43          1           0       -8.405606    0.371212    1.378982
     44          1           0       -9.371857   -0.638544   -0.652814
     45          1           0       -7.893208   -1.760752   -2.276342
     46          1           0       -5.479639   -1.859974   -1.880478
 ---------------------------------------------------------------------
                    Distance matrix (angstroms):
                    1          2          3          4          5
     1  C    0.000000
     2  C    1.387194   0.000000
     3  C    2.398032   1.388203   0.000000
     4  C    2.772001   2.404741   1.383093   0.000000
     5  C    2.389073   2.764785   2.388765   1.383527   0.000000
     6  C    1.384953   2.404850   2.771500   2.405044   1.381646
     7  N    2.446401   1.418271   2.418733   3.691465   4.182709
     8  C    3.114346   2.474794   3.567224   4.778469   5.121521
     9  C    4.308664   3.711758   4.773411   6.040054   6.407645
    10  C    3.366394   3.088751   4.108608   5.093361   5.243607
    11  C    5.130600   4.731902   5.813547   7.000714   7.255985
    12  O    4.635472   4.406592   5.461371   6.495941   6.630357
    13  Br   5.407716   4.683751   5.591967   6.913604   7.412021
    14  O    6.272013   5.894922   6.968996   8.173977   8.429704
    15  C    3.957640   3.444254   3.990918   4.869712   5.220249
    16  C    4.726614   4.548512   5.031197   5.613674   5.731588
    17  O    5.036438   4.234238   4.610106   5.647896   6.248080
    18  C    4.825278   4.785533   5.008914   5.255024   5.264108
    19  C    5.939834   6.069390   6.279228   6.357922   6.207719
    20  C    6.839789   7.003611   7.382134   7.589698   7.411437
    21  C    6.756984   6.829442   7.384238   7.831124   7.740025
    22  C    5.802117   5.721140   6.342337   6.967615   7.006562
    23  C    8.133657   8.396346   8.739822   8.823898   8.547734
    24  C    8.932811   9.127620   9.281350   9.240944   9.022984
    25  C   10.185099  10.449047  10.602871  10.495499  10.207905
    26  C   10.697802  11.075981  11.374906  11.305035  10.909749
    27  C   10.049069  10.491067  10.946901  10.975420  10.528112
    28  C    8.777449   9.175720   9.672477   9.782564   9.383693
    29  Br   4.139032   4.659582   4.138025   2.844313   1.894806
    30  H    2.876231   3.063741   4.186154   4.950112   4.813554
    31  H    3.420030   2.767585   3.047219   3.859546   4.327111
    32  H    1.074904   2.138054   3.373358   3.846388   3.362096
    33  H    3.369915   2.133179   1.074990   2.135895   3.365850
    34  H    3.845213   3.378439   2.136426   1.073224   2.135886
    35  H    2.137435   3.378059   3.844691   3.376484   2.134504
    36  H    3.127873   2.069709   2.786988   4.088010   4.705004
    37  H    5.703608   5.007483   5.501192   6.539735   7.062296
    38  H    4.330032   4.225483   4.218916   4.314780   4.391240
    39  H    6.305546   6.504858   6.557813   6.413097   6.186002
    40  H    7.651335   7.745773   8.371959   8.865856   8.755413
    41  H    6.108536   5.956096   6.703339   7.490281   7.584941
    42  H    8.716049   8.791410   8.798754   8.727560   8.626552
    43  H   10.872384  11.088896  11.127000  10.947578  10.704272
    44  H   11.712966  12.121281  12.407837  12.296025  11.869215
    45  H   10.639626  11.155845  11.701791  11.751105  11.236881
    46  H    8.412660   8.867859   9.507388   9.705676   9.265269
                    6          7          8          9         10
     6  C    0.000000
     7  N    3.711011   0.000000
     8  C    4.446546   1.350416   0.000000
     9  C    5.677602   2.408772   1.333181   0.000000
    10  C    4.503729   2.538131   1.516718   2.304815   0.000000
    11  C    6.437822   3.603886   2.284728   1.457672   2.291526
    12  O    5.806944   3.605496   2.301612   2.258157   1.410985
    13  Br   6.769536   3.305691   2.871296   1.866072   4.138487
    14  O    7.581698   4.719935   3.434079   2.400540   3.409168
    15  C    4.827579   3.172708   2.556508   3.412610   1.540539
    16  C    5.322156   4.543617   3.899790   4.691367   2.545661
    17  O    5.989451   3.627047   2.958013   3.421009   2.403998
    18  C    5.057365   5.160313   4.818429   5.805198   3.585761
    19  C    5.998218   6.499849   6.098586   7.021995   4.763079
    20  C    7.038609   7.239216   6.604075   7.329204   5.143419
    21  C    7.219743   6.797548   5.948536   6.464493   4.457622
    22  C    6.459126   5.533812   4.630684   5.120530   3.172974
    23  C    8.198451   8.697584   8.066692   8.770259   6.591398
    24  C    8.865557   9.526035   9.014483   9.792216   7.594797
    25  C   10.047743  10.875781  10.350993  11.108101   8.911543
    26  C   10.597563  11.453961  10.829349  11.506107   9.342234
    27  C   10.054276  10.784834  10.063948  10.659951   8.555422
    28  C    8.872991   9.422117   8.683450   9.280847   7.173699
    29  Br   2.843339   6.077476   6.987606   8.281013   6.971268
    30  H    3.889940   2.910103   2.164175   3.040513   1.081768
    31  H    4.146308   2.832358   2.712636   3.820843   2.128831
    32  H    2.132144   2.678077   2.970758   3.978708   3.160700
    33  H    3.846397   2.623361   3.749258   4.814000   4.425463
    34  H    3.376026   4.553388   5.663652   6.898145   5.980195
    35  H    1.073207   4.580623   5.163439   6.329441   5.077185
    36  H    4.334073   0.996537   1.990815   2.595555   3.397592
    37  H    6.698441   4.296365   3.394576   3.570299   2.678316
    38  H    4.401485   4.821660   4.768394   5.903672   3.788571
    39  H    6.129790   7.118217   6.874509   7.889028   5.620017
    40  H    8.166180   7.608509   6.645996   6.996213   5.164526
    41  H    6.944638   5.517977   4.428157   4.639677   3.063185
    42  H    8.619768   9.227423   8.819152   9.657461   7.477980
    43  H   10.663573  11.567233  11.114413  11.912521   9.713111
    44  H   11.568527  12.519436  11.896675  12.566004  10.407243
    45  H   10.668180  11.412539  10.633519  11.159572   9.124182
    46  H    8.611032   9.028406   8.202913   8.712644   6.693743
                   11         12         13         14         15
    11  C    0.000000
    12  O    1.354321   0.000000
    13  Br   2.931627   4.051472   0.000000
    14  O    1.179334   2.221898   3.320787   0.000000
    15  C    3.361503   2.411076   5.128087   4.360916   0.000000
    16  C    4.302423   3.068066   6.496112   5.144432   1.520298
    17  O    3.315072   2.759176   4.898973   4.124056   1.395748
    18  C    5.588633   4.352069   7.572607   6.490204   2.512713
    19  C    6.636781   5.330630   8.833387   7.432446   3.798329
    20  C    6.672776   5.352550   9.177219   7.285838   4.334509
    21  C    5.618584   4.347910   8.295727   6.097448   3.818936
    22  C    4.334647   3.075142   6.941396   4.908930   2.551591
    23  C    8.043974   6.726311  10.624560   8.577643   5.824961
    24  C    9.152915   7.846910  11.625104   9.727070   6.639791
    25  C   10.415105   9.107188  12.950553  10.936496   8.006492
    26  C   10.701299   9.398434  13.363808  11.134534   8.619432
    27  C    9.779063   8.493928  12.513932  10.154928   8.016965
    28  C    8.422224   7.126145  11.136739   8.839364   6.652451
    29  Br   9.065907   8.341091   9.294994  10.234519   6.824843
    30  H    3.017954   2.031284   4.808893   4.074205   2.162609
    31  H    4.124846   3.311001   5.374470   5.205142   1.080927
    32  H    4.672556   4.221824   5.114082   5.745982   4.115721
    33  H    5.902440   5.684035   5.451189   7.006770   4.131848
    34  H    7.872064   7.374935   7.690520   9.035261   5.568180
    35  H    6.970972   6.278555   7.457732   8.070483   5.508531
    36  H    3.986476   4.279935   2.865895   4.992593   4.034154
    37  H    3.084303   2.538171   5.063089   3.677278   1.935943
    38  H    5.950278   4.817958   7.565297   6.955822   2.699560
    39  H    7.607280   6.309567   9.671588   8.448475   4.642255
    40  H    5.975240   4.788981   8.789121   6.263282   4.674937
    41  H    3.631132   2.503095   6.397710   4.022612   2.771464
    42  H    9.132489   7.854758  11.449861   9.773125   6.361578
    43  H   11.274210   9.974909  13.737357  11.822047   8.710337
    44  H   11.741054  10.443993  14.423778  12.146550   9.695027
    45  H   10.210630   8.960320  12.996961  10.509592   8.727424
    46  H    7.785269   6.520739  10.551473   8.143165   6.385287
                   16         17         18         19         20
    16  C    0.000000
    17  O    2.441176   0.000000
    18  C    1.387115   3.484215   0.000000
    19  C    2.414267   4.671212   1.384862   0.000000
    20  C    2.814608   5.059350   2.413008   1.389808   0.000000
    21  C    2.410742   4.381726   2.752776   2.384839   1.393365
    22  C    1.392152   3.094827   2.384594   2.761100   2.418139
    23  C    4.305097   6.512243   3.782893   2.508194   1.490491
    24  C    5.159101   7.240628   4.399684   3.059640   2.506955
    25  C    6.513503   8.602146   5.761244   4.400213   3.781721
    26  C    7.099607   9.268700   6.495813   5.141633   4.285001
    27  C    6.512294   8.720156   6.100519   4.836535   3.781710
    28  C    5.157615   7.380455   4.835436   3.659416   2.506988
    29  Br   7.067479   7.891929   6.305942   6.959942   8.227219
    30  H    2.684475   3.329077   3.463368   4.514402   4.925687
    31  H    2.114774   1.980998   2.536465   3.920465   4.757465
    32  H    4.824689   5.220733   5.110114   6.155003   6.874324
    33  H    5.302301   4.424557   5.373711   6.686620   7.766626
    34  H    6.264326   6.214090   5.784753   6.825541   8.122622
    35  H    5.804051   6.761809   5.473171   6.232551   7.200271
    36  H    5.466002   4.254345   6.108622   7.462586   8.199923
    37  H    2.588557   0.944139   3.808254   4.825408   4.949692
    38  H    2.137223   3.689575   1.076615   2.127241   3.379503
    39  H    3.380487   5.537619   2.129730   1.075261   2.138088
    40  H    3.377788   5.092369   3.827799   3.363018   2.139354
    41  H    2.146356   3.018036   3.366568   3.835418   3.380847
    42  H    4.968394   6.886814   4.079341   2.848603   2.708847
    43  H    7.255663   9.252500   6.409851   5.077304   4.638593
    44  H    8.175209  10.335066   7.555920   6.193031   5.360604
    45  H    7.253699   9.448989   6.944814   5.738773   4.638543
    46  H    4.965936   7.153499   4.872831   3.902188   2.709158
                   21         22         23         24         25
    21  C    0.000000
    22  C    1.381997   0.000000
    23  C    2.510412   3.785203   0.000000
    24  C    3.662171   4.839489   1.392476   0.000000
    25  C    4.839079   6.103453   2.414303   1.384350   0.000000
    26  C    5.143459   6.496515   2.794511   2.401138   1.384981
    27  C    4.401099   5.759968   2.414292   2.764417   2.393012
    28  C    3.060284   4.398485   1.392520   2.392681   2.764454
    29  Br   8.816688   8.309934   9.139603   9.423902  10.462692
    30  H    4.390796   3.302377   6.301681   7.354253   8.624687
    31  H    4.525101   3.403182   6.218793   6.888758   8.264644
    32  H    6.650854   5.697376   8.147424   9.079946  10.303177
    33  H    7.704221   6.601089   9.154721   9.639899  10.985993
    34  H    8.460710   7.648325   9.304866   9.578878  10.809067
    35  H    7.444461   6.820010   8.239975   8.939318  10.038198
    36  H    7.718488   6.422013   9.666734  10.482782  11.839771
    37  H    4.058998   2.784364   6.350835   7.154117   8.476089
    38  H    3.829293   3.365464   4.634498   5.067830   6.401115
    39  H    3.364788   3.836145   2.714589   2.851959   4.084367
    40  H    1.075211   2.124976   2.713605   3.908619   4.880788
    41  H    2.121494   1.074604   4.631249   5.735794   6.939788
    42  H    3.904672   4.878336   2.139057   1.075521   2.131580
    43  H    5.741464   6.948571   3.384746   2.132743   1.075822
    44  H    6.194684   7.556228   3.870113   3.376542   2.139094
    45  H    5.077328   6.406849   3.384707   3.840192   3.370109
    46  H    2.847553   4.075709   2.139288   3.369946   3.839832
                   26         27         28         29         30
    26  C    0.000000
    27  C    1.385011   0.000000
    28  C    2.401161   1.384324   0.000000
    29  Br  11.189035  10.957395   9.970235   0.000000
    30  H    8.980332   8.149228   6.790532   6.435611   0.000000
    31  H    8.984358   8.490045   7.157618   5.924083   2.539625
    32  H   10.686430   9.915209   8.637302   4.975013   2.507850
    33  H   11.824328  11.441890  10.156362   4.979951   4.741434
    34  H   11.712009  11.497424  10.349309   2.948234   5.911186
    35  H   10.485832   9.903846   8.788233   2.947953   4.287080
    36  H   12.431844  11.762417  10.395380   6.573690   3.835740
    37  H    9.055384   8.443379   7.115372   8.697256   3.600640
    38  H    7.232226   6.941553   5.735258   5.387860   3.655604
    39  H    4.958206   4.881626   3.909113   6.650650   5.294131
    40  H    4.956604   4.081832   2.849178   9.838675   5.122329
    41  H    7.225720   6.390636   5.057697   9.022277   3.377179
    42  H    3.372100   3.839760   3.369811   9.008297   7.321067
    43  H    2.137627   3.370105   3.840238  10.840069   9.458399
    44  H    1.075603   2.139096   3.376539  12.058086  10.028249
    45  H    2.137672   1.075806   2.132662  11.670391   8.672759
    46  H    3.372052   2.131421   1.075529   9.975007   6.267859
                   31         32         33         34         35
    31  H    0.000000
    32  H    3.848588   0.000000
    33  H    3.202029   4.258919   0.000000
    34  H    4.505632   4.919520   2.465131   0.000000
    35  H    4.941864   2.457779   4.919602   4.260771   0.000000
    36  H    3.695939   3.344856   2.760617   4.851817   5.213918
    37  H    2.781789   5.747290   5.344683   7.136258   7.397575
    38  H    2.267447   4.822313   4.604000   4.767552   4.915116
    39  H    4.567427   6.620817   7.004415   6.769518   6.298319
    40  H    5.477962   7.448054   8.676086   9.516737   8.343156
    41  H    3.794521   5.880847   6.897826   8.220166   7.329474
    42  H    6.491463   8.982892   9.083078   8.968867   8.793184
    43  H    8.887749  11.069135  11.469270  11.166155  10.679417
    44  H   10.053113  11.694887  12.866064  12.681054  11.415174
    45  H    9.257308  10.414075  12.234931  12.325325  10.446132
    46  H    6.986518   8.150851  10.027033  10.366008   8.491421
                   36         37         38         39         40
    36  H    0.000000
    37  H    4.900622   0.000000
    38  H    5.737214   4.239181   0.000000
    39  H    8.073683   5.782600   2.435548   0.000000
    40  H    8.501622   4.605739   4.904342   4.260274   0.000000
    41  H    6.325649   2.443382   4.266214   4.910447   2.426180
    42  H   10.157425   6.893192   4.603382   2.500954   4.342850
    43  H   12.518019   9.171183   6.942228   4.618788   5.832134
    44  H   13.499396  10.109346   8.266437   5.947570   5.945705
    45  H   12.385647   9.120202   7.809984   5.832884   4.615355
    46  H    9.990080   6.833021   5.823822   4.343500   2.496132
                   41         42         43         44         45
    41  H    0.000000
    42  H    5.828221   0.000000
    43  H    7.810168   2.448151   0.000000
    44  H    8.259121   4.260215   2.466058   0.000000
    45  H    6.928295   4.915558   4.262536   2.466089   0.000000
    46  H    4.588446   4.262915   4.915644   4.260095   2.447829
                   46
    46  H    0.000000
 Stoichiometry    C23H17Br2NO3
 Framework group  C1[X(C23H17Br2NO3)]
 Deg. of freedom   132
 Full point group                 C1      NOp   1
 Largest Abelian subgroup         C1      NOp   1
 Largest concise Abelian subgroup C1      NOp   1
                         Standard orientation:                         
 ---------------------------------------------------------------------
 Center     Atomic      Atomic             Coordinates (Angstroms)
 Number     Number       Type             X           Y           Z
 ---------------------------------------------------------------------
      1          6           0        2.090174    1.728888   -1.111812
      2          6           0        2.572854    1.277383    0.107807
      3          6           0        2.579521    2.133399    1.200647
      4          6           0        2.102843    3.426119    1.079816
      5          6           0        1.601940    3.854517   -0.136621
      6          6           0        1.589423    3.014404   -1.233434
      7          7           0        3.099846   -0.031104    0.254888
      8          6           0        2.499231   -1.187649   -0.099075
      9          6           0        3.066669   -2.382074   -0.268584
     10          6           0        1.004853   -1.352442   -0.299350
     11          6           0        2.045845   -3.374140   -0.582479
     12          8           0        0.863466   -2.715757   -0.634405
     13         35           0        4.879563   -2.793362   -0.105849
     14          8           0        2.132412   -4.534053   -0.777250
     15          6           0        0.178680   -1.045831    0.964251
     16          6           0       -1.315990   -1.009188    0.688706
     17          8           0        0.537010   -1.923771    1.988425
     18          6           0       -2.018107    0.171232    0.882941
     19          6           0       -3.382136    0.239205    0.653491
     20          6           0       -4.089519   -0.878767    0.227682
     21          6           0       -3.382844   -2.064127    0.035333
     22          6           0       -2.020480   -2.129990    0.257913
     23          6           0       -5.558310   -0.812413   -0.016885
     24          6           0       -6.403840   -0.178794    0.890086
     25          6           0       -7.767953   -0.116321    0.662670
     26          6           0       -8.311948   -0.686644   -0.476178
     27          6           0       -7.481273   -1.320086   -1.385566
     28          6           0       -6.117226   -1.382393   -1.157870
     29         35           0        0.929811    5.618422   -0.301459
     30          1           0        0.644428   -0.757528   -1.127838
     31          1           0        0.471204   -0.064048    1.309122
     32          1           0        2.119586    1.086144   -1.972878
     33          1           0        2.950820    1.781012    2.145932
     34          1           0        2.109765    4.087661    1.924875
     35          1           0        1.210782    3.360672   -2.176038
     36          1           0        4.070234   -0.104956    0.469316
     37          1           0        0.194147   -2.785770    1.812925
     38          1           0       -1.499019    1.054247    1.214500
     39          1           0       -3.894929    1.173877    0.793552
     40          1           0       -3.906490   -2.949492   -0.277722
     41          1           0       -1.509823   -3.059232    0.083237
     42          1           0       -5.994984    0.249052    1.788156
     43          1           0       -8.405606    0.371212    1.378982
     44          1           0       -9.371857   -0.638544   -0.652814
     45          1           0       -7.893208   -1.760752   -2.276342
     46          1           0       -5.479639   -1.859974   -1.880478
 ---------------------------------------------------------------------
 Rotational constants (GHZ):      0.1022338      0.0672036      0.0425171
 Leave Link  202 at Mon Jul 08 03:52:46 2019, MaxMem=   209715200 cpu:         0.0
 (Enter C:\G09W\l301.exe)
 Standard basis: 6-311++G(d,p) (5D, 7F)
 Ernie: Thresh=  0.10000D-02 Tol=  0.10000D-05 Strict=F.
 There are   842 symmetry adapted cartesian basis functions of A   symmetry.
 There are   809 symmetry adapted basis functions of A   symmetry.
   809 basis functions,  1313 primitive gaussians,   842 cartesian basis functions
   128 alpha electrons      128 beta electrons
       nuclear repulsion energy      3482.3063560499 Hartrees.
 IExCor=  402 DFT=T Ex+Corr=B3LYP ExCW=0 ScaHFX=  0.200000
 ScaDFX=  0.800000  0.720000  1.000000  0.810000 ScalE2=  1.000000  1.000000
 IRadAn=      0 IRanWt=     -1 IRanGd=            0 ICorTp=0 IEmpDi=  4
 NAtoms=   46 NActive=   46 NUniq=   46 SFac= 1.00D+00 NAtFMM=   60 NAOKFM=F Big=F
 Integral buffers will be    262144 words long.
 Raffenetti 2 integral format.
 Two-electron integral symmetry is turned on.
 Leave Link  301 at Mon Jul 08 03:52:46 2019, MaxMem=   209715200 cpu:         0.0
 (Enter C:\G09W\l302.exe)
 NPDir=0 NMtPBC=     1 NCelOv=     1 NCel=       1 NClECP=     1 NCelD=      1
         NCelK=      1 NCelE2=     1 NClLst=     1 CellRange=     0.0.
 One-electron integrals computed using PRISM.
 NBasis=   809 RedAO= T EigKep=  1.15D-06  NBF=   809
 NBsUse=   802 1.00D-06 EigRej=  9.43D-07 NBFU=   802
 Precomputing XC quadrature grid using
 IXCGrd= 4 IRadAn=           0 IRanWt=          -1 IRanGd=           0 AccXCQ= 0.00D+00.
 Generated NRdTot=       0 NPtTot=           0 NUsed=           0 NTot=          16
 NSgBfM=   782   782   788   788   788 MxSgAt=    46 MxSgA2=    46.
 Leave Link  302 at Mon Jul 08 03:52:51 2019, MaxMem=   209715200 cpu:         5.0
 (Enter C:\G09W\l303.exe)
 DipDrv:  MaxL=1.
 Leave Link  303 at Mon Jul 08 03:52:51 2019, MaxMem=   209715200 cpu:         0.0
 (Enter C:\G09W\l401.exe)
 ExpMin= 3.50D-02 ExpMax= 4.40D+05 ExpMxC= 1.51D+04 IAcc=3 IRadAn=         5 AccDes= 0.00D+00
 Harris functional with IExCor=  402 and IRadAn=       5 diagonalized for initial guess.
 HarFok:  IExCor=  402 AccDes= 0.00D+00 IRadAn=         5 IDoV= 1 UseB2=F ITyADJ=14
 ICtDFT=  3500011 ScaDFX=  1.000000  1.000000  1.000000  1.000000
 FoFCou: FMM=F IPFlag=           0 FMFlag=      100000 FMFlg1=           0
         NFxFlg=           0 DoJE=T BraDBF=F KetDBF=T FulRan=T
         wScrn=  0.000000 ICntrl=     500 IOpCl=  0 I1Cent=   200000004 NGrid=           0
         NMat0=    1 NMatS0=      1 NMatT0=    0 NMatD0=    1 NMtDS0=    0 NMtDT0=    0
 Petite list used in FoFCou.
 Harris En= -6315.89622660677    
 JPrj=0 DoOrth=F DoCkMO=F.
 Leave Link  401 at Mon Jul 08 03:53:48 2019, MaxMem=   209715200 cpu:        56.0
 (Enter C:\G09W\l502.exe)
 Closed shell SCF:
 Using DIIS extrapolation, IDIIS=  1040.
 Integral symmetry usage will be decided dynamically.
 IVT=     2155608 IEndB=     2155608 NGot=   209715200 MDV=   208286039
 LenX=   208286039 LenY=   207576233
 Requested convergence on RMS density matrix=1.00D-08 within 128 cycles.
 Requested convergence on MAX density matrix=1.00D-06.
 Requested convergence on             energy=1.00D-06.
 No special actions if energy rises.
 Fock matrices will be formed incrementally for  20 cycles.

 Cycle   1  Pass 1  IDiag  1:
 FoFJK:  IHMeth= 1 ICntrl=       0 DoSepK=F KAlg= 0 I1Cent=   0 FoldK=F
 IRaf= 720000000 NMat=   1 IRICut=       1 DoRegI=T DoRafI=F ISym2E= 0.
 FoFCou: FMM=F IPFlag=           0 FMFlag=      100000 FMFlg1=           0
         NFxFlg=           0 DoJE=F BraDBF=F KetDBF=F FulRan=T
         wScrn=  0.000000 ICntrl=       0 IOpCl=  0 I1Cent=           0 NGrid=           0
         NMat0=    1 NMatS0=      1 NMatT0=    0 NMatD0=    1 NMtDS0=    0 NMtDT0=    0
 Symmetry not used in FoFCou.
 E= -6315.00827936017    
 DIIS: error= 8.05D-02 at cycle   1 NSaved=   1.
 NSaved= 1 IEnMin= 1 EnMin= -6315.00827936017     IErMin= 1 ErrMin= 8.05D-02
 ErrMax= 8.05D-02  0.00D+00 EMaxC= 1.00D-01 BMatC= 3.11D+00 BMatP= 3.11D+00
 IDIUse=3 WtCom= 1.95D-01 WtEn= 8.05D-01
 Coeff-Com:  0.100D+01
 Coeff-En:   0.100D+01
 Coeff:      0.100D+01
 Gap=     0.267 Goal=   None    Shift=    0.000
 GapD=    0.267 DampG=1.000 DampE=0.500 DampFc=0.5000 IDamp=-1.
 Damping current iteration by 5.00D-01
 RMSDP=2.61D-02 MaxDP=2.01D+00              OVMax= 2.53D-01

 Cycle   2  Pass 1  IDiag  1:
 RMSU=  1.28D-02    CP:  9.50D-01
 E= -6315.26551015404     Delta-E=       -0.257230793868 Rises=F Damp=T
 DIIS: error= 4.02D-02 at cycle   2 NSaved=   2.
 NSaved= 2 IEnMin= 2 EnMin= -6315.26551015404     IErMin= 2 ErrMin= 4.02D-02
 ErrMax= 4.02D-02  0.00D+00 EMaxC= 1.00D-01 BMatC= 4.58D-01 BMatP= 3.11D+00
 IDIUse=3 WtCom= 5.98D-01 WtEn= 4.02D-01
 Coeff-Com: -0.207D+00 0.121D+01
 Coeff-En:   0.219D+00 0.781D+00
 Coeff:     -0.354D-01 0.104D+01
 Gap=     0.349 Goal=   None    Shift=    0.000
 RMSDP=1.34D-02 MaxDP=1.67D+00 DE=-2.57D-01 OVMax= 1.75D-01

 Cycle   3  Pass 1  IDiag  1:
 RMSU=  7.85D-03    CP:  9.04D-01  1.74D-01
 E= -6315.49192135784     Delta-E=       -0.226411203803 Rises=F Damp=F
 DIIS: error= 1.87D-02 at cycle   3 NSaved=   3.
 NSaved= 3 IEnMin= 3 EnMin= -6315.49192135784     IErMin= 3 ErrMin= 1.87D-02
 ErrMax= 1.87D-02  0.00D+00 EMaxC= 1.00D-01 BMatC= 2.71D-01 BMatP= 4.58D-01
 IDIUse=3 WtCom= 8.13D-01 WtEn= 1.87D-01
 Coeff-Com: -0.194D+00 0.607D+00 0.587D+00
 Coeff-En:   0.000D+00 0.130D+00 0.870D+00
 Coeff:     -0.158D+00 0.518D+00 0.640D+00
 Gap=     0.196 Goal=   None    Shift=    0.000
 RMSDP=7.13D-03 MaxDP=5.83D-01 DE=-2.26D-01 OVMax= 2.16D-01

 Cycle   4  Pass 1  IDiag  1:
 RMSU=  6.10D-03    CP:  8.95D-01  4.46D-01  8.63D-01
 E= -6315.58036022097     Delta-E=       -0.088438863128 Rises=F Damp=F
 DIIS: error= 1.31D-02 at cycle   4 NSaved=   4.
 NSaved= 4 IEnMin= 4 EnMin= -6315.58036022097     IErMin= 4 ErrMin= 1.31D-02
 ErrMax= 1.31D-02  0.00D+00 EMaxC= 1.00D-01 BMatC= 1.47D-01 BMatP= 2.71D-01
 IDIUse=3 WtCom= 8.69D-01 WtEn= 1.31D-01
 Coeff-Com: -0.951D-01 0.242D+00 0.452D+00 0.401D+00
 Coeff-En:   0.000D+00 0.000D+00 0.395D+00 0.605D+00
 Coeff:     -0.827D-01 0.210D+00 0.445D+00 0.428D+00
 Gap=     0.240 Goal=   None    Shift=    0.000
 RMSDP=5.43D-03 MaxDP=5.74D-01 DE=-8.84D-02 OVMax= 1.09D-01

 Cycle   5  Pass 1  IDiag  1:
 RMSU=  2.76D-03    CP:  8.32D-01  5.00D-01  6.81D-01  5.02D-01
 E= -6315.69911603683     Delta-E=       -0.118755815864 Rises=F Damp=F
 DIIS: error= 1.72D-03 at cycle   5 NSaved=   5.
 NSaved= 5 IEnMin= 5 EnMin= -6315.69911603683     IErMin= 5 ErrMin= 1.72D-03
 ErrMax= 1.72D-03  0.00D+00 EMaxC= 1.00D-01 BMatC= 4.19D-03 BMatP= 1.47D-01
 IDIUse=3 WtCom= 9.83D-01 WtEn= 1.72D-02
 Coeff-Com: -0.206D-01 0.497D-01 0.150D+00 0.219D+00 0.602D+00
 Coeff-En:   0.000D+00 0.000D+00 0.000D+00 0.000D+00 0.100D+01
 Coeff:     -0.202D-01 0.489D-01 0.147D+00 0.215D+00 0.609D+00
 Gap=     0.177 Goal=   None    Shift=    0.000
 RMSDP=1.60D-03 MaxDP=1.70D-01 DE=-1.19D-01 OVMax= 2.05D-02

 Cycle   6  Pass 1  IDiag  1:
 RMSU=  7.23D-04    CP:  8.42D-01  4.57D-01  7.46D-01  5.61D-01  6.22D-01
 E= -6315.70272247393     Delta-E=       -0.003606437096 Rises=F Damp=F
 DIIS: error= 6.35D-04 at cycle   6 NSaved=   6.
 NSaved= 6 IEnMin= 6 EnMin= -6315.70272247393     IErMin= 6 ErrMin= 6.35D-04
 ErrMax= 6.35D-04  0.00D+00 EMaxC= 1.00D-01 BMatC= 5.36D-04 BMatP= 4.19D-03
 IDIUse=3 WtCom= 9.94D-01 WtEn= 6.35D-03
 Coeff-Com: -0.171D-02 0.365D-02 0.279D-01 0.676D-01 0.350D+00 0.552D+00
 Coeff-En:   0.000D+00 0.000D+00 0.000D+00 0.000D+00 0.692D-01 0.931D+00
 Coeff:     -0.170D-02 0.362D-02 0.277D-01 0.671D-01 0.349D+00 0.555D+00
 Gap=     0.177 Goal=   None    Shift=    0.000
 RMSDP=6.08D-04 MaxDP=6.47D-02 DE=-3.61D-03 OVMax= 5.95D-03

 Cycle   7  Pass 1  IDiag  1:
 RMSU=  2.01D-04    CP:  8.46D-01  4.50D-01  7.73D-01  5.85D-01  6.83D-01
                    CP:  3.95D-01
 E= -6315.70314160768     Delta-E=       -0.000419133750 Rises=F Damp=F
 DIIS: error= 3.64D-04 at cycle   7 NSaved=   7.
 NSaved= 7 IEnMin= 7 EnMin= -6315.70314160768     IErMin= 7 ErrMin= 3.64D-04
 ErrMax= 3.64D-04  0.00D+00 EMaxC= 1.00D-01 BMatC= 6.18D-05 BMatP= 5.36D-04
 IDIUse=3 WtCom= 9.96D-01 WtEn= 3.64D-03
 Coeff-Com:  0.437D-03-0.113D-02 0.169D-02 0.139D-01 0.136D+00 0.316D+00
 Coeff-Com:  0.533D+00
 Coeff-En:   0.000D+00 0.000D+00 0.000D+00 0.000D+00 0.000D+00 0.603D-01
 Coeff-En:   0.940D+00
 Coeff:      0.435D-03-0.113D-02 0.169D-02 0.138D-01 0.136D+00 0.315D+00
 Coeff:      0.535D+00
 Gap=     0.177 Goal=   None    Shift=    0.000
 RMSDP=2.10D-04 MaxDP=2.19D-02 DE=-4.19D-04 OVMax= 2.78D-03

 Cycle   8  Pass 1  IDiag  1:
 RMSU=  8.75D-05    CP:  8.44D-01  4.57D-01  7.59D-01  5.76D-01  6.86D-01
                    CP:  4.72D-01  7.01D-01
 E= -6315.70319364138     Delta-E=       -0.000052033698 Rises=F Damp=F
 DIIS: error= 1.76D-04 at cycle   8 NSaved=   8.
 NSaved= 8 IEnMin= 8 EnMin= -6315.70319364138     IErMin= 8 ErrMin= 1.76D-04
 ErrMax= 1.76D-04  0.00D+00 EMaxC= 1.00D-01 BMatC= 1.32D-05 BMatP= 6.18D-05
 IDIUse=3 WtCom= 9.98D-01 WtEn= 1.76D-03
 Coeff-Com:  0.587D-03-0.133D-02-0.217D-02 0.113D-02 0.539D-01 0.153D+00
 Coeff-Com:  0.358D+00 0.436D+00
 Coeff-En:   0.000D+00 0.000D+00 0.000D+00 0.000D+00 0.000D+00 0.000D+00
 Coeff-En:   0.162D+00 0.838D+00
 Coeff:      0.586D-03-0.133D-02-0.216D-02 0.113D-02 0.539D-01 0.153D+00
 Coeff:      0.358D+00 0.437D+00
 Gap=     0.177 Goal=   None    Shift=    0.000
 RMSDP=6.08D-05 MaxDP=6.74D-03 DE=-5.20D-05 OVMax= 9.56D-04

 Cycle   9  Pass 1  IDiag  1:
 RMSU=  2.38D-05    CP:  8.44D-01  4.57D-01  7.59D-01  5.76D-01  6.93D-01
                    CP:  4.99D-01  7.23D-01  5.61D-01
 E= -6315.70320658826     Delta-E=       -0.000012946884 Rises=F Damp=F
 DIIS: error= 2.07D-05 at cycle   9 NSaved=   9.
 NSaved= 9 IEnMin= 9 EnMin= -6315.70320658826     IErMin= 9 ErrMin= 2.07D-05
 ErrMax= 2.07D-05  0.00D+00 EMaxC= 1.00D-01 BMatC= 4.08D-07 BMatP= 1.32D-05
 IDIUse=1 WtCom= 1.00D+00 WtEn= 0.00D+00
 Coeff-Com:  0.273D-03-0.610D-03-0.867D-03-0.445D-03 0.150D-01 0.463D-01
 Coeff-Com:  0.121D+00 0.206D+00 0.613D+00
 Coeff:      0.273D-03-0.610D-03-0.867D-03-0.445D-03 0.150D-01 0.463D-01
 Coeff:      0.121D+00 0.206D+00 0.613D+00
 Gap=     0.177 Goal=   None    Shift=    0.000
 RMSDP=1.10D-05 MaxDP=1.32D-03 DE=-1.29D-05 OVMax= 1.41D-04

 Cycle  10  Pass 1  IDiag  1:
 RMSU=  6.49D-06    CP:  8.44D-01  4.57D-01  7.59D-01  5.76D-01  6.91D-01
                    CP:  5.04D-01  7.10D-01  5.57D-01  7.78D-01
 E= -6315.70320693081     Delta-E=       -0.000000342552 Rises=F Damp=F
 DIIS: error= 6.83D-06 at cycle  10 NSaved=  10.
 NSaved=10 IEnMin=10 EnMin= -6315.70320693081     IErMin=10 ErrMin= 6.83D-06
 ErrMax= 6.83D-06  0.00D+00 EMaxC= 1.00D-01 BMatC= 6.69D-08 BMatP= 4.08D-07
 IDIUse=1 WtCom= 1.00D+00 WtEn= 0.00D+00
 Coeff-Com:  0.799D-04-0.186D-03-0.237D-03-0.473D-03 0.236D-02 0.969D-02
 Coeff-Com:  0.313D-01 0.717D-01 0.351D+00 0.535D+00
 Coeff:      0.799D-04-0.186D-03-0.237D-03-0.473D-03 0.236D-02 0.969D-02
 Coeff:      0.313D-01 0.717D-01 0.351D+00 0.535D+00
 Gap=     0.177 Goal=   None    Shift=    0.000
 RMSDP=5.49D-06 MaxDP=8.03D-04 DE=-3.43D-07 OVMax= 5.18D-05

 Cycle  11  Pass 1  IDiag  1:
 RMSU=  2.22D-06    CP:  8.44D-01  4.57D-01  7.59D-01  5.76D-01  6.91D-01
                    CP:  5.00D-01  7.19D-01  5.81D-01  7.85D-01  6.67D-01
 E= -6315.70320698934     Delta-E=       -0.000000058524 Rises=F Damp=F
 DIIS: error= 1.05D-06 at cycle  11 NSaved=  11.
 NSaved=11 IEnMin=11 EnMin= -6315.70320698934     IErMin=11 ErrMin= 1.05D-06
 ErrMax= 1.05D-06  0.00D+00 EMaxC= 1.00D-01 BMatC= 1.59D-09 BMatP= 6.69D-08
 IDIUse=1 WtCom= 1.00D+00 WtEn= 0.00D+00
 Coeff-Com:  0.958D-05-0.236D-04-0.430D-04-0.135D-03-0.151D-03 0.358D-03
 Coeff-Com:  0.302D-02 0.118D-01 0.920D-01 0.179D+00 0.714D+00
 Coeff:      0.958D-05-0.236D-04-0.430D-04-0.135D-03-0.151D-03 0.358D-03
 Coeff:      0.302D-02 0.118D-01 0.920D-01 0.179D+00 0.714D+00
 Gap=     0.177 Goal=   None    Shift=    0.000
 RMSDP=1.18D-06 MaxDP=9.88D-05 DE=-5.85D-08 OVMax= 1.27D-05

 Cycle  12  Pass 1  IDiag  1:
 RMSU=  6.18D-07    CP:  8.44D-01  4.57D-01  7.59D-01  5.76D-01  6.91D-01
                    CP:  5.00D-01  7.19D-01  5.81D-01  8.04D-01  7.00D-01
                    CP:  8.10D-01
 E= -6315.70320699095     Delta-E=       -0.000000001612 Rises=F Damp=F
 DIIS: error= 7.85D-07 at cycle  12 NSaved=  12.
 NSaved=12 IEnMin=12 EnMin= -6315.70320699095     IErMin=12 ErrMin= 7.85D-07
 ErrMax= 7.85D-07  0.00D+00 EMaxC= 1.00D-01 BMatC= 6.18D-10 BMatP= 1.59D-09
 IDIUse=1 WtCom= 1.00D+00 WtEn= 0.00D+00
 Coeff-Com: -0.947D-06 0.138D-05-0.133D-04-0.350D-04-0.273D-03-0.560D-03
 Coeff-Com: -0.821D-03 0.375D-03 0.216D-01 0.517D-01 0.428D+00 0.500D+00
 Coeff:     -0.947D-06 0.138D-05-0.133D-04-0.350D-04-0.273D-03-0.560D-03
 Coeff:     -0.821D-03 0.375D-03 0.216D-01 0.517D-01 0.428D+00 0.500D+00
 Gap=     0.177 Goal=   None    Shift=    0.000
 RMSDP=2.93D-07 MaxDP=2.21D-05 DE=-1.61D-09 OVMax= 6.59D-06

 Cycle  13  Pass 1  IDiag  1:
 RMSU=  1.50D-07    CP:  8.44D-01  4.57D-01  7.59D-01  5.76D-01  6.91D-01
                    CP:  5.00D-01  7.19D-01  5.81D-01  8.05D-01  7.00D-01
                    CP:  8.30D-01  7.57D-01
 E= -6315.70320699070     Delta-E=        0.000000000251 Rises=F Damp=F
 DIIS: error= 3.00D-07 at cycle  13 NSaved=  13.
 NSaved=13 IEnMin=12 EnMin= -6315.70320699095     IErMin=13 ErrMin= 3.00D-07
 ErrMax= 3.00D-07  0.00D+00 EMaxC= 1.00D-01 BMatC= 4.69D-11 BMatP= 6.18D-10
 IDIUse=1 WtCom= 1.00D+00 WtEn= 0.00D+00
 Coeff-Com: -0.196D-05 0.418D-05-0.270D-05-0.183D-05-0.148D-03-0.384D-03
 Coeff-Com: -0.856D-03-0.138D-02 0.525D-03 0.618D-02 0.141D+00 0.259D+00
 Coeff-Com:  0.596D+00
 Coeff:     -0.196D-05 0.418D-05-0.270D-05-0.183D-05-0.148D-03-0.384D-03
 Coeff:     -0.856D-03-0.138D-02 0.525D-03 0.618D-02 0.141D+00 0.259D+00
 Coeff:      0.596D+00
 Gap=     0.177 Goal=   None    Shift=    0.000
 RMSDP=1.28D-07 MaxDP=1.12D-05 DE= 2.51D-10 OVMax= 2.23D-06

 Cycle  14  Pass 1  IDiag  1:
 RMSU=  6.83D-08    CP:  8.44D-01  4.57D-01  7.59D-01  5.76D-01  6.91D-01
                    CP:  5.00D-01  7.19D-01  5.81D-01  8.04D-01  7.00D-01
                    CP:  8.33D-01  7.79D-01  6.55D-01
 E= -6315.70320699161     Delta-E=       -0.000000000909 Rises=F Damp=F
 DIIS: error= 7.84D-08 at cycle  14 NSaved=  14.
 NSaved=14 IEnMin=14 EnMin= -6315.70320699161     IErMin=14 ErrMin= 7.84D-08
 ErrMax= 7.84D-08  0.00D+00 EMaxC= 1.00D-01 BMatC= 8.17D-12 BMatP= 4.69D-11
 IDIUse=1 WtCom= 1.00D+00 WtEn= 0.00D+00
 Coeff-Com: -0.112D-05 0.242D-05-0.613D-06 0.215D-05-0.666D-04-0.186D-03
 Coeff-Com: -0.449D-03-0.902D-03-0.175D-02-0.109D-02 0.458D-01 0.113D+00
 Coeff-Com:  0.374D+00 0.471D+00
 Coeff:     -0.112D-05 0.242D-05-0.613D-06 0.215D-05-0.666D-04-0.186D-03
 Coeff:     -0.449D-03-0.902D-03-0.175D-02-0.109D-02 0.458D-01 0.113D+00
 Coeff:      0.374D+00 0.471D+00
 Gap=     0.177 Goal=   None    Shift=    0.000
 RMSDP=3.78D-08 MaxDP=4.09D-06 DE=-9.09D-10 OVMax= 6.17D-07

 Cycle  15  Pass 1  IDiag  1:
 RMSU=  1.86D-08    CP:  8.44D-01  4.57D-01  7.59D-01  5.76D-01  6.91D-01
                    CP:  5.00D-01  7.19D-01  5.81D-01  8.04D-01  7.02D-01
                    CP:  8.39D-01  7.72D-01  7.10D-01  7.76D-01
 E= -6315.70320699147     Delta-E=        0.000000000142 Rises=F Damp=F
 DIIS: error= 2.51D-08 at cycle  15 NSaved=  15.
 NSaved=15 IEnMin=14 EnMin= -6315.70320699161     IErMin=15 ErrMin= 2.51D-08
 ErrMax= 2.51D-08  0.00D+00 EMaxC= 1.00D-01 BMatC= 6.22D-13 BMatP= 8.17D-12
 IDIUse=1 WtCom= 1.00D+00 WtEn= 0.00D+00
 Coeff-Com: -0.366D-06 0.795D-06 0.153D-06 0.110D-05-0.175D-04-0.536D-04
 Coeff-Com: -0.132D-03-0.293D-03-0.847D-03-0.108D-02 0.705D-02 0.284D-01
 Coeff-Com:  0.125D+00 0.254D+00 0.589D+00
 Coeff:     -0.366D-06 0.795D-06 0.153D-06 0.110D-05-0.175D-04-0.536D-04
 Coeff:     -0.132D-03-0.293D-03-0.847D-03-0.108D-02 0.705D-02 0.284D-01
 Coeff:      0.125D+00 0.254D+00 0.589D+00
 Gap=     0.177 Goal=   None    Shift=    0.000
 RMSDP=1.16D-08 MaxDP=1.09D-06 DE= 1.42D-10 OVMax= 2.80D-07

 Cycle  16  Pass 1  IDiag  1:
 RMSU=  6.67D-09    CP:  8.44D-01  4.57D-01  7.59D-01  5.76D-01  6.91D-01
                    CP:  5.00D-01  7.19D-01  5.81D-01  8.04D-01  7.02D-01
                    CP:  8.38D-01  7.78D-01  7.28D-01  8.14D-01  7.65D-01
 E= -6315.70320699062     Delta-E=        0.000000000848 Rises=F Damp=F
 DIIS: error= 1.13D-08 at cycle  16 NSaved=  16.
 NSaved=16 IEnMin=14 EnMin= -6315.70320699161     IErMin=16 ErrMin= 1.13D-08
 ErrMax= 1.13D-08  0.00D+00 EMaxC= 1.00D-01 BMatC= 1.38D-13 BMatP= 6.22D-13
 IDIUse=1 WtCom= 1.00D+00 WtEn= 0.00D+00
 Coeff-Com: -0.513D-07 0.116D-06 0.178D-06 0.299D-06-0.148D-06-0.397D-05
 Coeff-Com: -0.131D-04-0.478D-04-0.309D-03-0.592D-03-0.294D-02 0.553D-03
 Coeff-Com:  0.201D-01 0.864D-01 0.363D+00 0.534D+00
 Coeff:     -0.513D-07 0.116D-06 0.178D-06 0.299D-06-0.148D-06-0.397D-05
 Coeff:     -0.131D-04-0.478D-04-0.309D-03-0.592D-03-0.294D-02 0.553D-03
 Coeff:      0.201D-01 0.864D-01 0.363D+00 0.534D+00
 Gap=     0.177 Goal=   None    Shift=    0.000
 RMSDP=4.92D-09 MaxDP=5.27D-07 DE= 8.48D-10 OVMax= 9.38D-08

 SCF Done:  E(RB3LYP) =  -6315.70320699     A.U. after   16 cycles
            NFock= 16  Conv=0.49D-08     -V/T= 2.0016
 KE= 6.305745103902D+03 PE=-2.198764817519D+04 EE= 5.883893508250D+03
 Leave Link  502 at Mon Jul 08 04:45:35 2019, MaxMem=   209715200 cpu:      3107.0
 (Enter C:\G09W\l601.exe)
 Copying SCF densities to generalized density rwf, IOpCl= 0 IROHF=0.

 **********************************************************************

            Population analysis using the SCF density.

 **********************************************************************

 Orbital symmetries:
       Occupied  (A) (A) (A) (A) (A) (A) (A) (A) (A) (A) (A) (A)
                 (A) (A) (A) (A) (A) (A) (A) (A) (A) (A) (A) (A)
                 (A) (A) (A) (A) (A) (A) (A) (A) (A) (A) (A) (A)
                 (A) (A) (A) (A) (A) (A) (A) (A) (A) (A) (A) (A)
                 (A) (A) (A) (A) (A) (A) (A) (A) (A) (A) (A) (A)
                 (A) (A) (A) (A) (A) (A) (A) (A) (A) (A) (A) (A)
                 (A) (A) (A) (A) (A) (A) (A) (A) (A) (A) (A) (A)
                 (A) (A) (A) (A) (A) (A) (A) (A) (A) (A) (A) (A)
                 (A) (A) (A) (A) (A) (A) (A) (A) (A) (A) (A) (A)
                 (A) (A) (A) (A) (A) (A) (A) (A) (A) (A) (A) (A)
                 (A) (A) (A) (A) (A) (A) (A) (A)
       Virtual   (A) (A) (A) (A) (A) (A) (A) (A) (A) (A) (A) (A)
                 (A) (A) (A) (A) (A) (A) (A) (A) (A) (A) (A) (A)
                 (A) (A) (A) (A) (A) (A) (A) (A) (A) (A) (A) (A)
                 (A) (A) (A) (A) (A) (A) (A) (A) (A) (A) (A) (A)
                 (A) (A) (A) (A) (A) (A) (A) (A) (A) (A) (A) (A)
                 (A) (A) (A) (A) (A) (A) (A) (A) (A) (A) (A) (A)
                 (A) (A) (A) (A) (A) (A) (A) (A) (A) (A) (A) (A)
                 (A) (A) (A) (A) (A) (A) (A) (A) (A) (A) (A) (A)
                 (A) (A) (A) (A) (A) (A) (A) (A) (A) (A) (A) (A)
                 (A) (A) (A) (A) (A) (A) (A) (A) (A) (A) (A) (A)
                 (A) (A) (A) (A) (A) (A) (A) (A) (A) (A) (A) (A)
                 (A) (A) (A) (A) (A) (A) (A) (A) (A) (A) (A) (A)
                 (A) (A) (A) (A) (A) (A) (A) (A) (A) (A) (A) (A)
                 (A) (A) (A) (A) (A) (A) (A) (A) (A) (A) (A) (A)
                 (A) (A) (A) (A) (A) (A) (A) (A) (A) (A) (A) (A)
                 (A) (A) (A) (A) (A) (A) (A) (A) (A) (A) (A) (A)
                 (A) (A) (A) (A) (A) (A) (A) (A) (A) (A) (A) (A)
                 (A) (A) (A) (A) (A) (A) (A) (A) (A) (A) (A) (A)
                 (A) (A) (A) (A) (A) (A) (A) (A) (A) (A) (A) (A)
                 (A) (A) (A) (A) (A) (A) (A) (A) (A) (A) (A) (A)
                 (A) (A) (A) (A) (A) (A) (A) (A) (A) (A) (A) (A)
                 (A) (A) (A) (A) (A) (A) (A) (A) (A) (A) (A) (A)
                 (A) (A) (A) (A) (A) (A) (A) (A) (A) (A) (A) (A)
                 (A) (A) (A) (A) (A) (A) (A) (A) (A) (A) (A) (A)
                 (A) (A) (A) (A) (A) (A) (A) (A) (A) (A) (A) (A)
                 (A) (A) (A) (A) (A) (A) (A) (A) (A) (A) (A) (A)
                 (A) (A) (A) (A) (A) (A) (A) (A) (A) (A) (A) (A)
                 (A) (A) (A) (A) (A) (A) (A) (A) (A) (A) (A) (A)
                 (A) (A) (A) (A) (A) (A) (A) (A) (A) (A) (A) (A)
                 (A) (A) (A) (A) (A) (A) (A) (A) (A) (A) (A) (A)
                 (A) (A) (A) (A) (A) (A) (A) (A) (A) (A) (A) (A)
                 (A) (A) (A) (A) (A) (A) (A) (A) (A) (A) (A) (A)
                 (A) (A) (A) (A) (A) (A) (A) (A) (A) (A) (A) (A)
                 (A) (A) (A) (A) (A) (A) (A) (A) (A) (A) (A) (A)
                 (A) (A) (A) (A) (A) (A) (A) (A) (A) (A) (A) (A)
                 (A) (A) (A) (A) (A) (A) (A) (A) (A) (A) (A) (A)
                 (A) (A) (A) (A) (A) (A) (A) (A) (A) (A) (A) (A)
                 (A) (A) (A) (A) (A) (A) (A) (A) (A) (A) (A) (A)
                 (A) (A) (A) (A) (A) (A) (A) (A) (A) (A) (A) (A)
                 (A) (A) (A) (A) (A) (A) (A) (A) (A) (A) (A) (A)
                 (A) (A) (A) (A) (A) (A) (A) (A) (A) (A) (A) (A)
                 (A) (A) (A) (A) (A) (A) (A) (A) (A) (A) (A) (A)
                 (A) (A) (A) (A) (A) (A) (A) (A) (A) (A) (A) (A)
                 (A) (A) (A) (A) (A) (A) (A) (A) (A) (A) (A) (A)
                 (A) (A) (A) (A) (A) (A) (A) (A) (A) (A) (A) (A)
                 (A) (A) (A) (A) (A) (A) (A) (A) (A) (A) (A) (A)
                 (A) (A) (A) (A) (A) (A) (A) (A) (A) (A) (A) (A)
                 (A) (A) (A) (A) (A) (A) (A) (A) (A) (A) (A) (A)
                 (A) (A) (A) (A) (A) (A) (A) (A) (A) (A) (A) (A)
                 (A) (A) (A) (A) (A) (A) (A) (A) (A) (A) (A) (A)
                 (A) (A) (A) (A) (A) (A) (A) (A) (A) (A) (A) (A)
                 (A) (A) (A) (A) (A) (A) (A) (A) (A) (A) (A) (A)
                 (A) (A) (A) (A) (A) (A) (A) (A) (A) (A) (A) (A)
                 (A) (A) (A) (A) (A) (A) (A) (A) (A) (A) (A) (A)
                 (A) (A) (A) (A) (A) (A) (A) (A) (A) (A) (A) (A)
                 (A) (A) (A) (A) (A) (A) (A) (A) (A) (A) (A) (A)
                 (A) (A)
 The electronic state is 1-A.
 Alpha  occ. eigenvalues -- -482.84933-482.84678 -62.50227 -62.49950 -56.32261
 Alpha  occ. eigenvalues --  -56.31990 -56.31875 -56.31861 -56.31593 -56.31591
 Alpha  occ. eigenvalues --  -19.17701 -19.14125 -19.10812 -14.37869 -10.30344
 Alpha  occ. eigenvalues --  -10.26663 -10.25862 -10.25675 -10.25348 -10.25290
 Alpha  occ. eigenvalues --  -10.22696 -10.21537 -10.21500 -10.21462 -10.21305
 Alpha  occ. eigenvalues --  -10.19574 -10.19470 -10.19289 -10.18696 -10.18459
 Alpha  occ. eigenvalues --  -10.18437 -10.18370 -10.18085 -10.18074 -10.18025
[...]
   565. RY*(   1) C  26                  0.00602     1.10298   
   566. RY*(   2) C  26                  0.00214     1.27167   
   567. RY*(   3) C  26                  0.00098     0.46574   
   568. RY*(   4) C  26                  0.00055     1.65591   
   569. RY*(   5) C  26                  0.00037     0.84020   
   570. RY*(   6) C  26                  0.00035     0.87041   
   571. RY*(   7) C  26                  0.00011     2.97797   
   572. RY*(   8) C  26                  0.00007     2.95013   
   573. RY*(   9) C  26                  0.00003     2.12559   
   574. RY*(  10) C  26                  0.00003     2.21062   
   575. RY*(  11) C  26                  0.00000    20.04724   
   576. RY*(  12) C  26                  0.00001     1.94656   
   577. RY*(  13) C  26                  0.00000     1.56831   
   578. RY*(  14) C  26                  0.00000     0.38677   
   579. RY*(  15) C  26                  0.00000     2.54066   
   580. RY*(  16) C  26                  0.00000     1.30478   
   581. RY*(  17) C  26                  0.00000     3.11337   
   582. RY*(   1) C  27                  0.00587     1.06080   
   583. RY*(   2) C  27                  0.00212     1.30433   
   584. RY*(   3) C  27                  0.00083     0.54005   
   585. RY*(   4) C  27                  0.00060     1.59369   
   586. RY*(   5) C  27                  0.00044     0.97625   
   587. RY*(   6) C  27                  0.00017     1.48935   
   588. RY*(   7) C  27                  0.00011     3.14713   
   589. RY*(   8) C  27                  0.00005     2.57220   
   590. RY*(   9) C  27                  0.00006     1.92741   
   591. RY*(  10) C  27                  0.00002     3.52966   
   592. RY*(  11) C  27                  0.00000     0.95530   
   593. RY*(  12) C  27                  0.00001     2.44970   
   594. RY*(  13) C  27                  0.00001     0.68716   
   595. RY*(  14) C  27                  0.00000     2.59034   
   596. RY*(  15) C  27                  0.00000     1.48543   
   597. RY*(  16) C  27                  0.00000    19.65162   
   598. RY*(  17) C  27                  0.00001     1.48220   
   599. RY*(   1) C  28                  0.00547     1.31771   
   600. RY*(   2) C  28                  0.00202     1.10795   
   601. RY*(   3) C  28                  0.00092     0.82532   
   602. RY*(   4) C  28                  0.00080     0.83022   
   603. RY*(   5) C  28                  0.00059     1.51035   
   604. RY*(   6) C  28                  0.00026     1.52990   
   605. RY*(   7) C  28                  0.00015     2.31876   
   606. RY*(   8) C  28                  0.00009     3.35693   
   607. RY*(   9) C  28                  0.00006     2.19323   
   608. RY*(  10) C  28                  0.00007     1.35393   
   609. RY*(  11) C  28                  0.00004     1.52811   
   610. RY*(  12) C  28                  0.00001     1.73263   
   611. RY*(  13) C  28                  0.00002     1.88953   
   612. RY*(  14) C  28                  0.00001     2.26164   
   613. RY*(  15) C  28                  0.00000    21.04189   
   614. RY*(  16) C  28                  0.00000     2.52471   
   615. RY*(  17) C  28                  0.00000     2.87972   
   616. RY*(   1)Br  29                  0.00289     0.56278   
   617. RY*(   2)Br  29                  0.00144     0.58700   
   618. RY*(   3)Br  29                  0.00072     0.45796   
   619. RY*(   4)Br  29                  0.00018     0.93249   
   620. RY*(   5)Br  29                  0.00006     0.66577   
   621. RY*(   6)Br  29                  0.00006     0.61328   
   622. RY*(   7)Br  29                  0.00004     0.63427   
   623. RY*(   8)Br  29                  0.00004     1.50191   
   624. RY*(   9)Br  29                  0.00001     0.43674   
   625. RY*(  10)Br  29                  0.00001     1.39836   
   626. RY*(  11)Br  29                  0.00000    13.67741   
   627. RY*(  12)Br  29                  0.00000    86.32282   
   628. RY*(  13)Br  29                  0.00001     2.73352   
   629. RY*(  14)Br  29                  0.00000    10.87045   
   630. RY*(  15)Br  29                  0.00000   285.22033   
   631. RY*(  16)Br  29                  0.00000   974.16310   
   632. RY*(  17)Br  29                  0.00000     3.14304   
   633. RY*(  18)Br  29                  0.00000     3.13112   
   634. RY*(  19)Br  29                  0.00000    10.66032   
   635. RY*(  20)Br  29                  0.00000   285.33330   
   636. RY*(  21)Br  29                  0.00001     0.74418   
   637. RY*(  22)Br  29                  0.00000     4.62629   
   638. RY*(  23)Br  29                  0.00001     0.82603   
   639. RY*(  24)Br  29                  0.00000     4.12482   
   640. RY*(  25)Br  29                  0.00000    10.81582   
   641. RY*(  26)Br  29                  0.00000     4.18158   
   642. RY*(  27)Br  29                  0.00001     0.44716   
   643. RY*(  28)Br  29                  0.00000     4.13803   
   644. RY*(  29)Br  29                  0.00000   285.22140   
   645. RY*(  30)Br  29                  0.00000     4.06280   
   646. RY*(   1) H  30                  0.00129     0.95921   
   647. RY*(   2) H  30                  0.00027     1.75755   
   648. RY*(   3) H  30                  0.00019     2.09436   
   649. RY*(   4) H  30                  0.00012     2.05478   
   650. RY*(   5) H  30                  0.00008     1.76026   
   651. RY*(   6) H  30                  0.00006     1.37932   
   652. RY*(   1) H  31                  0.00229     0.55785   
   653. RY*(   2) H  31                  0.00024     1.93163   
   654. RY*(   3) H  31                  0.00020     1.63758   
   655. RY*(   4) H  31                  0.00017     1.58786   
   656. RY*(   5) H  31                  0.00013     2.29732   
   657. RY*(   6) H  31                  0.00010     1.94924   
   658. RY*(   1) H  32                  0.00120     0.53334   
   659. RY*(   2) H  32                  0.00036     1.54953   
   660. RY*(   3) H  32                  0.00025     2.06881   
   661. RY*(   4) H  32                  0.00010     1.95136   
   662. RY*(   5) H  32                  0.00007     0.77844   
   663. RY*(   6) H  32                  0.00004     2.58605   
   664. RY*(   1) H  33                  0.00080     0.93312   
   665. RY*(   2) H  33                  0.00021     1.68246   
   666. RY*(   3) H  33                  0.00017     1.95317   
   667. RY*(   4) H  33                  0.00011     1.92736   
   668. RY*(   5) H  33                  0.00004     0.31308   
   669. RY*(   6) H  33                  0.00004     2.43796   
   670. RY*(   1) H  34                  0.00077     0.77025   
   671. RY*(   2) H  34                  0.00023     2.19687   
   672. RY*(   3) H  34                  0.00018     1.57492   
   673. RY*(   4) H  34                  0.00015     1.84159   
   674. RY*(   5) H  34                  0.00006     0.39544   
   675. RY*(   6) H  34                  0.00003     2.37081   
   676. RY*(   1) H  35                  0.00074     0.77408   
   677. RY*(   2) H  35                  0.00023     1.97173   
   678. RY*(   3) H  35                  0.00019     1.65393   
   679. RY*(   4) H  35                  0.00016     1.85846   
   680. RY*(   5) H  35                  0.00008     0.62351   
   681. RY*(   6) H  35                  0.00004     2.33342   
   682. RY*(   1) H  36                  0.00166     0.84078   
   683. RY*(   2) H  36                  0.00067     1.63897   
   684. RY*(   3) H  36                  0.00040     1.85338   
   685. RY*(   4) H  36                  0.00020     2.01243   
   686. RY*(   5) H  36                  0.00008     1.55040   
   687. RY*(   6) H  36                  0.00005     1.70955   
   688. RY*(   1) H  37                  0.00176     1.65090   
   689. RY*(   2) H  37                  0.00126     1.82534   
   690. RY*(   3) H  37                  0.00069     1.65317   
   691. RY*(   4) H  37                  0.00025     1.34318   
   692. RY*(   5) H  37                  0.00011     0.39029   
   693. RY*(   6) H  37                  0.00001     2.46449   
   694. RY*(   1) H  38                  0.00077     1.11999   
   695. RY*(   2) H  38                  0.00023     1.84740   
   696. RY*(   3) H  38                  0.00019     1.65863   
   697. RY*(   4) H  38                  0.00013     2.01138   
   698. RY*(   5) H  38                  0.00004     2.45780   
   699. RY*(   1) H  39                  0.00149     0.46219   
   700. RY*(   2) H  39                  0.00031     2.37353   
   701. RY*(   3) H  39                  0.00018     1.65965   
   702. RY*(   4) H  39                  0.00013     1.75276   
   703. RY*(   5) H  39                  0.00007     0.86283   
   704. RY*(   6) H  39                  0.00004     2.29199   
   705. RY*(   1) H  40                  0.00188     0.58158   
   706. RY*(   2) H  40                  0.00033     2.33113   
   707. RY*(   3) H  40                  0.00018     1.63696   
   708. RY*(   4) H  40                  0.00012     2.02596   
   709. RY*(   5) H  40                  0.00004     2.62165   
   710. RY*(   6) H  40                  0.00004     0.34092   
   711. RY*(   1) H  41                  0.00098     1.37994   
   712. RY*(   2) H  41                  0.00024     1.58153   
   713. RY*(   3) H  41                  0.00019     1.42415   
   714. RY*(   4) H  41                  0.00013     1.93096   
   715. RY*(   5) H  41                  0.00005     2.52136   
   716. RY*(   6) H  41                  0.00006     0.70556   
   717. RY*(   1) H  42                  0.00135     0.46664   
   718. RY*(   2) H  42                  0.00031     2.40027   
   719. RY*(   3) H  42                  0.00019     1.63376   
   720. RY*(   4) H  42                  0.00013     1.99279   
   721. RY*(   5) H  42                  0.00005     0.55071   
   722. RY*(   6) H  42                  0.00004     2.36039   
   723. RY*(   1) H  43                  0.00083     0.65424   
   724. RY*(   2) H  43                  0.00020     2.32495   
   725. RY*(   3) H  43                  0.00019     1.60356   
   726. RY*(   4) H  43                  0.00011     1.96684   
   727. RY*(   5) H  43                  0.00004     2.45961   
   728. RY*(   6) H  43                  0.00002     0.21429   
   729. RY*(   1) H  44                  0.00076     0.67443   
   730. RY*(   2) H  44                  0.00020     1.59239   
   731. RY*(   3) H  44                  0.00019     2.34821   
   732. RY*(   4) H  44                  0.00011     1.96972   
   733. RY*(   5) H  44                  0.00003     2.45749   
   734. RY*(   6) H  44                  0.00001     0.18174   
   735. RY*(   1) H  45                  0.00083     0.65476   
   736. RY*(   2) H  45                  0.00020     2.32685   
   737. RY*(   3) H  45                  0.00019     1.59875   
   738. RY*(   4) H  45                  0.00011     1.97508   
   739. RY*(   5) H  45                  0.00004     2.48862   
   740. RY*(   6) H  45                  0.00002     0.19704   
   741. RY*(   1) H  46                  0.00138     0.44729   
   742. RY*(   2) H  46                  0.00033     2.36694   
   743. RY*(   3) H  46                  0.00019     0.23131   
   744. RY*(   4) H  46                  0.00013     0.47238   
   745. RY*(   5) H  46                  0.00006     0.35905   
   746. RY*(   6) H  46                  0.00004     1.23166   
   747. BD*(   1) C   1 - C   2          0.02619     0.52865   
   748. BD*(   1) C   1 - C   6          0.01593     0.54498   
   749. BD*(   2) C   1 - C   6          0.32966    -0.00507  752(v),757(v),218(g),131(g)
                                                    765(r)
   750. BD*(   1) C   1 - H  32          0.01282     0.40740   
   751. BD*(   1) C   2 - C   3          0.02362     0.52755   
   752. BD*(   2) C   2 - C   3          0.39371    -0.01013  757(v),749(v),165(g),765(r)
                                                    763(v),149(g),131(v)
   753. BD*(   1) C   2 - N   7          0.02927     0.37778   
   754. BD*(   1) C   3 - C   4          0.01554     0.54706   
   755. BD*(   1) C   3 - H  33          0.01225     0.40503   
   756. BD*(   1) C   4 - C   5          0.02615     0.53826   
   757. BD*(   2) C   4 - C   5          0.39128    -0.01375  752(v),749(v),182(g),199(g)
                                                    216(v),616(v),809(r)
   758. BD*(   1) C   4 - H  34          0.01357     0.41190   
   759. BD*(   1) C   5 - C   6          0.02598     0.54003   
   760. BD*(   1) C   5 -Br  29          0.03389     0.07092   
   761. BD*(   1) C   6 - H  35          0.01367     0.41115   
   762. BD*(   1) N   7 - C   8          0.02817     0.44859   
   763. BD*(   1) N   7 - H  36          0.02380     0.35642   
   764. BD*(   1) C   8 - C   9          0.02486     0.58620   
   765. BD*(   2) C   8 - C   9          0.29823    -0.00476  774(v),267(g),770(v),771(v)
                                                    251(g),752(r),749(r)
   766. BD*(   1) C   8 - C  10          0.03772     0.35231   
   767. BD*(   1) C   9 - C  11          0.07715     0.43227   
   768. BD*(   1) C   9 -Br  13          0.03116     0.08469   
   769. BD*(   1) C  10 - O  12          0.02811     0.24411   
   770. BD*(   1) C  10 - C  15          0.05326     0.31735   
   771. BD*(   1) C  10 - H  30          0.02683     0.37158   
   772. BD*(   1) C  11 - O  12          0.12287     0.30302  769(g),766(v),300(g),770(v)
                                                    764(v),768(v),306(g),328(g)
   773. BD*(   1) C  11 - O  14          0.01303     0.63136   
   774. BD*(   2) C  11 - O  14          0.28231     0.00865  765(v),301(g),364(g),377(g)
   775. BD*(   1) C  15 - C  16          0.03614     0.39461   
   776. BD*(   1) C  15 - O  17          0.03178     0.26909   
   777. BD*(   1) C  15 - H  31          0.02381     0.37366   
   778. BD*(   1) C  16 - C  18          0.02257     0.56544   
   779. BD*(   2) C  16 - C  18          0.36034     0.02356  790(v),785(v),776(v),433(g)
                                                    770(v),500(v)
   780. BD*(   1) C  16 - C  22          0.02583     0.56334   
   781. BD*(   1) O  17 - H  37          0.00939     0.41858   
   782. BD*(   1) C  18 - C  19          0.01407     0.57421   
   783. BD*(   1) C  18 - H  38          0.01454     0.42654   
   784. BD*(   1) C  19 - C  20          0.02448     0.55863   
   785. BD*(   2) C  19 - C  20          0.35425     0.02675  790(v),779(v),795(v),450(g)
                                                    793(v),484(v),809(r)
   786. BD*(   1) C  19 - H  39          0.01390     0.43349   
   787. BD*(   1) C  20 - C  21          0.02497     0.54067   
   788. BD*(   1) C  20 - C  23          0.03162     0.45225   
   789. BD*(   1) C  21 - C  22          0.01539     0.56372   
   790. BD*(   2) C  21 - C  22          0.30955     0.02418  779(v),785(v),484(g),500(g)
                                                    501(g)
   791. BD*(   1) C  21 - H  40          0.01411     0.43654   
   792. BD*(   1) C  22 - H  41          0.01495     0.44912   
   793. BD*(   1) C  23 - C  24          0.02505     0.55195   
   794. BD*(   1) C  23 - C  28          0.02502     0.55043   
   795. BD*(   2) C  23 - C  28          0.36211     0.02989  797(v),802(v),785(v),601(g)
                                                    743(v),787(v),805(v),602(g)
   796. BD*(   1) C  24 - C  25          0.01512     0.57689   
   797. BD*(   2) C  24 - C  25          0.32333     0.03367  795(v),802(v),550(g),534(g)
                                                    804(r),807(r)
   798. BD*(   1) C  24 - H  42          0.01403     0.43974   
   799. BD*(   1) C  25 - C  26          0.01633     0.57692   
   800. BD*(   1) C  25 - H  43          0.01356     0.43943   
   801. BD*(   1) C  26 - C  27          0.01632     0.57308   
   802. BD*(   2) C  26 - C  27          0.33485     0.02573  795(v),797(v),567(g),584(g)
                                                    578(g)
   803. BD*(   1) C  26 - H  44          0.01363     0.44988   
   804. BD*(   1) C  27 - C  28          0.01511     3.51765   
   805. BD*(   1) C  27 - H  45          0.01355     2.53728   
   806. BD*(   1) C  28 - H  46          0.01403     4.39955   
       -------------------------------
              Total Lewis  250.61099  ( 97.8949%)
        Valence non-Lewis    4.95477  (  1.9355%)
        Rydberg non-Lewis    0.43425  (  0.1696%)
       -------------------------------
            Total unit  1  256.00000  (100.0000%)
           Charge unit  1    0.00000
 Leave Link  607 at Mon Jul 08 16:03:29 2019, MaxMem=   209715200 cpu:        41.0
 (Enter C:\G09W\l9999.exe)
 1|1|UNPC-CCSC-01038015|FOpt|RB3LYP|6-311++G(d,p)|C23H17Br2N1O3|PERFIL|
 08-Jul-2019|0||#p opt b3lyp/6-311++g(d,p) pop=nbo geom=connectivity||9
 r.log||0,1|C,1.872147461,1.6793887618,-1.0297237789|C,2.6003230871,1.2
 845401379,0.0969070359|C,2.8812118311,2.2264494879,1.0932668231|C,2.43
 38640069,3.5377968671,0.9741918288|C,1.6834598061,3.906289922,-0.13937
 90847|C,1.399691143,2.9843996093,-1.1418641092|N,3.1069928749,-0.02891
 0688,0.239956173|C,2.5129508166,-1.208239417,-0.0812764943|C,3.1079318
 448,-2.421519992,-0.1444151548|C,1.0262867686,-1.4098774762,-0.3090834
 489|C,2.124840934,-3.4587470418,-0.429861912|O,0.8967909211,-2.8172542
 302,-0.5636291597|Br,4.9346565772,-2.7774864983,0.1407746357|O,2.23294
 34234,-4.6445990624,-0.5549334078|C,0.156245618,-1.0134232041,0.915053
 3517|C,-1.3337255635,-0.9854914913,0.6175564866|O,0.4861347333,-1.8225
 695421,2.0378787282|C,-2.0789210506,0.137796661,0.9881847248|C,-3.4523
 155138,0.1929708991,0.7740283035|C,-4.1327712578,-0.8799163153,0.18242
 14126|C,-3.3818869529,-2.0057132258,-0.1864179902|C,-2.0076909668,-2.0
 60342506,0.0236205869|C,-5.5989711387,-0.8253691953,-0.0461747234|C,-6
 .4560059276,-0.2604992446,0.9101577557|C,-7.8306671376,-0.2070427294,0
 .6959764151|C,-8.3784347277,-0.7173534244,-0.47984189|C,-7.5392148926,
 -1.2825256871,-1.4386828982|C,-6.1646103506,-1.3363875967,-1.223793646
 3|Br,1.0453150285,5.7037180717,-0.2976618174|H,0.6650947699,-0.8823948
 551,-1.1937396623|H,0.455215139,-0.003814632,1.2029280481|H,1.69668137
 08,0.9825942213,-1.8392342587|H,3.4420031125,1.9272026437,1.9717592896
 |H,2.6555279099,4.2597691528,1.7493472829|H,0.8350977298,3.2822542187,
 -2.0158122236|H,4.0518420935,-0.1112778468,0.5936847714|H,0.1560793136
 ,-2.7153549644,1.8801709186|H,-1.5789461321,0.984675847,1.4472586913|H
 ,-3.9984310495,1.087774582,1.0500669289|H,-3.8824114523,-2.8607231543,
 -0.6263758525|H,-1.4606315692,-2.9454888123,-0.2772834536|H,-6.0446854
 106,0.1170354598,1.8395258712|H,-8.4755149176,0.2254639001,1.452917630
 8|H,-9.4487465337,-0.6760068931,-0.646881963|H,-7.9543999827,-1.675741
 663,-2.3600108581|H,-5.5204197867,-1.7578050541,-1.9872299068||Version
 =IA32W-G09RevD.01|State=1-A|HF=-6315.7101585|RMSD=2.364e-009|RMSF=9.58
 2e-006|Dipole=-0.3724578,1.9804682,0.0133109|Quadrupole=15.4717268,-19
 .8099654,4.3382386,10.9132475,4.7068115,2.5760258|PG=C01 [X(C23H17Br2N
 1O3)]||@


 Time has a wonderful way of weeding out the trivial.
                                -- Richard Ben Sapir
 Job cpu time:       0 days 12 hours 10 minutes 44.0 seconds.
 File lengths (MBytes):  RWF=    384 Int=      0 D2E=      0 Chk=     50 Scr=      1
 Normal termination of Gaussian 09 at Mon Jul 08 16:03:29 2019.
