 Entering Link 1 = C:\G09W\l1.exe PID=      8796.
  
 Copyright (c) 1988,1990,1992,1993,1995,1998,2003,2009,2013,
            Gaussian, Inc.  All Rights Reserved.
  
 This is part of the Gaussian(R) 09 program.  It is based on
 the Gaussian(R) 03 system (copyright 2003, Gaussian, Inc.),
 the Gaussian(R) 98 system (copyright 1998, Gaussian, Inc.),
 the Gaussian(R) 94 system (copyright 1995, Gaussian, Inc.),
 the Gaussian 92(TM) system (copyright 1992, Gaussian, Inc.),
 the Gaussian 90(TM) system (copyright 1990, Gaussian, Inc.),
 the Gaussian 88(TM) system (copyright 1988, Gaussian, Inc.),
 the Gaussian 86(TM) system (copyright 1986, Carnegie Mellon
 University), and the Gaussian 82(TM) system (copyright 1983,
 Carnegie Mellon University). Gaussian is a federally registered
 trademark of Gaussian, Inc.
  
 This software contains proprietary and confidential information,
 including trade secrets, belonging to Gaussian, Inc.
  
 This software is provided under written license and may be
 used, copied, transmitted, or stored only in accord with that
 written license.
  
 The following legend is applicable only to US Government
 contracts under FAR:
  
                    RESTRICTED RIGHTS LEGEND
  
 Use, reproduction and disclosure by the US Government is
 subject to restrictions as set forth in subparagraphs (a)
 and (c) of the Commercial Computer Software - Restricted
 Rights clause in FAR 52.227-19.
  
 Gaussian, Inc.
 340 Quinnipiac St., Bldg. 40, Wallingford CT 06492
  
  
 ---------------------------------------------------------------
 Warning -- This program may not be used in any manner that
 competes with the business of Gaussian, Inc. or will provide
 assistance to any competitor of Gaussian, Inc.  The licensee
 of this program is prohibited from giving any competitor of
 Gaussian, Inc. access to this program.  By using this program,
 the user acknowledges that Gaussian, Inc. is engaged in the
 business of creating and licensing software in the field of
 computational chemistry and represents and warrants to the
 licensee that it is not a competitor of Gaussian, Inc. and that
 it will not use this program in any manner prohibited above.
 ---------------------------------------------------------------
  

 Cite this work as:
 Gaussian 09, Revision D.01,
 M. J. Frisch, G. W. Trucks, H. B. Schlegel, G. E. Scuseria, 
 M. A. Robb, J. R. Cheeseman, G. Scalmani, V. Barone, B. Mennucci, 
 G. A. Petersson, H. Nakatsuji, M. Caricato, X. Li, H. P. Hratchian, 
 A. F. Izmaylov, J. Bloino, G. Zheng, J. L. Sonnenberg, M. Hada, 
 M. Ehara, K. Toyota, R. Fukuda, J. Hasegawa, M. Ishida, T. Nakajima, 
 Y. Honda, O. Kitao, H. Nakai, T. Vreven, J. A. Montgomery, Jr., 
 J. E. Peralta, F. Ogliaro, M. Bearpark, J. J. Heyd, E. Brothers, 
 K. N. Kudin, V. N. Staroverov, T. Keith, R. Kobayashi, J. Normand, 
 K. Raghavachari, A. Rendell, J. C. Burant, S. S. Iyengar, J. Tomasi, 
 M. Cossi, N. Rega, J. M. Millam, M. Klene, J. E. Knox, J. B. Cross, 
 V. Bakken, C. Adamo, J. Jaramillo, R. Gomperts, R. E. Stratmann, 
 O. Yazyev, A. J. Austin, R. Cammi, C. Pomelli, J. W. Ochterski, 
 R. L. Martin, K. Morokuma, V. G. Zakrzewski, G. A. Voth, 
 P. Salvador, J. J. Dannenberg, S. Dapprich, A. D. Daniels, 
 O. Farkas, J. B. Foresman, J. V. Ortiz, J. Cioslowski, 
 and D. J. Fox, Gaussian, Inc., Wallingford CT, 2013.
 
 ******************************************
 Gaussian 09:  IA32W-G09RevD.01 24-Apr-2013
                08-Jul-2019 
 ******************************************
 %nprocshared=4
 Will use up to    4 processors via shared memory.
 %mem=1600MB
 ----------------------------------------------------
 #p opt b3lyp/6-311++g(d,p) pop=nbo geom=connectivity
 ----------------------------------------------------
 1/14=-1,18=20,19=15,26=3,38=1,57=2/1,3;
 2/9=110,12=2,17=6,18=5,40=1/2;
 3/5=4,6=6,7=1111,11=2,16=1,25=1,30=1,71=1,74=-5/1,2,3;
 4//1;
 5/5=2,38=5/2;
 6/7=2,8=2,9=2,10=2,28=1,40=1/1,7;
 7//1,2,3,16;
 1/14=-1,18=20,19=15,26=3/3(2);
 2/9=110/2;
 99//99;
 2/9=110/2;
 3/5=4,6=6,7=1111,11=2,16=1,25=1,30=1,71=1,74=-5/1,2,3;
 4/5=5,16=3,69=1/1;
 5/5=2,38=5/2;
 7//1,2,3,16;
 1/14=-1,18=20,19=15,26=3/3(-5);
 2/9=110/2;
 6/7=2,8=2,9=2,10=2,19=2,28=1,40=1/1,7;
 99/9=1/99;
 Leave Link    1 at Mon Jul 08 16:03:29 2019, MaxMem=   209715200 cpu:         0.0
 (Enter C:\G09W\l101.exe)
 ------
 9s.log
 ------
 Symbolic Z-matrix:
 Charge =  0 Multiplicity = 1
 C                     1.99727   2.64904  -1.40432 
 C                     2.51854   2.34192  -0.15575 
 C                     2.44314   3.27185   0.87225 
 C                     1.84239   4.49917   0.6517 
 C                     1.29971   4.79802  -0.58839 
 C                     1.37632   3.87016  -1.6131 
 N                     3.16794   1.10027   0.0839 
 C                     2.66351  -0.12872  -0.14245 
 C                     3.32483  -1.28613  -0.20845 
 C                     1.18655  -0.43225  -0.3047 
 C                     2.38732  -2.38141  -0.41252 
 O                     1.15351  -1.82887  -0.50551 
 Br                    5.1676   -1.53186  -0.03966 
 O                     2.56538  -3.54443  -0.50026 
 C                     0.34334  -0.07463   0.93382 
 C                    -1.15019  -0.17854   0.66836 
 O                     0.76891  -0.82554   2.03068 
 C                    -1.93744   0.9614    0.73645 
 C                    -3.30261   0.90336   0.51051 
 C                    -3.9252   -0.30335   0.21465 
 C                    -3.13284  -1.44759   0.1482 
 C                    -1.76971  -1.3883    0.36763 
 C                    -5.39463  -0.37213  -0.02554 
 C                    -6.28589   0.29213   0.81322 
 C                    -7.65064   0.22918   0.58971 
 C                    -8.14981  -0.49971  -0.47693 
 C                    -7.27347  -1.16527  -1.31798 
 C                    -5.9088   -1.102    -1.09424 
 H                     0.77613   0.05028  -1.18143 
 H                     0.55964   0.95367   1.18555 
 H                     2.09139   1.94456  -2.21124 
 H                     2.84753   3.02393   1.83726 
 H                     1.78899   5.21616   1.45125 
 H                     0.82555   5.74842  -0.75528 
 H                     0.96857   4.09955  -2.58122 
 H                     4.14509   1.13034   0.27654 
 H                     0.52334  -1.73043   1.91981 
 H                    -1.48419   1.91097   0.96453 
 H                    -3.88343   1.80744   0.55112 
 H                    -3.58942  -2.39797  -0.06262 
 H                    -1.1916   -2.29102   0.29211 
 H                    -5.91069   0.84342   1.65706 
 H                    -8.32341   0.74313   1.25357 
 H                    -9.21019  -0.54926  -0.65039 
 H                    -7.65067  -1.72924  -2.15288 
 H                    -5.23679  -1.6071   -1.76508 
 
 NAtoms=     46 NQM=       46 NQMF=       0 NMMI=      0 NMMIF=      0
                NMic=       0 NMicF=      0.
                    Isotopes and Nuclear Properties:
 (Nuclear quadrupole moments (NQMom) in fm**2, nuclear magnetic moments (NMagM)
  in nuclear magnetons)

  Atom         1           2           3           4           5           6           7           8           9          10
 IAtWgt=          12          12          12          12          12          12          14          12          12          12
 AtmWgt=  12.0000000  12.0000000  12.0000000  12.0000000  12.0000000  12.0000000  14.0030740  12.0000000  12.0000000  12.0000000
 NucSpn=           0           0           0           0           0           0           2           0           0           0
 AtZEff=   0.0000000   0.0000000   0.0000000   0.0000000   0.0000000   0.0000000   0.0000000   0.0000000   0.0000000   0.0000000
 NQMom=    0.0000000   0.0000000   0.0000000   0.0000000   0.0000000   0.0000000   2.0440000   0.0000000   0.0000000   0.0000000
 NMagM=    0.0000000   0.0000000   0.0000000   0.0000000   0.0000000   0.0000000   0.4037610   0.0000000   0.0000000   0.0000000
 AtZNuc=   6.0000000   6.0000000   6.0000000   6.0000000   6.0000000   6.0000000   7.0000000   6.0000000   6.0000000   6.0000000

  Atom        11          12          13          14          15          16          17          18          19          20
 IAtWgt=          12          16          79          16          12          12          16          12          12          12
 AtmWgt=  12.0000000  15.9949146  78.9183361  15.9949146  12.0000000  12.0000000  15.9949146  12.0000000  12.0000000  12.0000000
 NucSpn=           0           0           3           0           0           0           0           0           0           0
 AtZEff=   0.0000000   0.0000000   0.0000000   0.0000000   0.0000000   0.0000000   0.0000000   0.0000000   0.0000000   0.0000000
 NQMom=    0.0000000   0.0000000  31.3000000   0.0000000   0.0000000   0.0000000   0.0000000   0.0000000   0.0000000   0.0000000
 NMagM=    0.0000000   0.0000000   2.1063990   0.0000000   0.0000000   0.0000000   0.0000000   0.0000000   0.0000000   0.0000000
 AtZNuc=   6.0000000   8.0000000  35.0000000   8.0000000   6.0000000   6.0000000   8.0000000   6.0000000   6.0000000   6.0000000

  Atom        21          22          23          24          25          26          27          28          29          30
 IAtWgt=          12          12          12          12          12          12          12          12           1           1
 AtmWgt=  12.0000000  12.0000000  12.0000000  12.0000000  12.0000000  12.0000000  12.0000000  12.0000000   1.0078250   1.0078250
 NucSpn=           0           0           0           0           0           0           0           0           1           1
 AtZEff=   0.0000000   0.0000000   0.0000000   0.0000000   0.0000000   0.0000000   0.0000000   0.0000000   0.0000000   0.0000000
 NQMom=    0.0000000   0.0000000   0.0000000   0.0000000   0.0000000   0.0000000   0.0000000   0.0000000   0.0000000   0.0000000
 NMagM=    0.0000000   0.0000000   0.0000000   0.0000000   0.0000000   0.0000000   0.0000000   0.0000000   2.7928460   2.7928460
 AtZNuc=   6.0000000   6.0000000   6.0000000   6.0000000   6.0000000   6.0000000   6.0000000   6.0000000   1.0000000   1.0000000

  Atom        31          32          33          34          35          36          37          38          39          40
 IAtWgt=           1           1           1           1           1           1           1           1           1           1
 AtmWgt=   1.0078250   1.0078250   1.0078250   1.0078250   1.0078250   1.0078250   1.0078250   1.0078250   1.0078250   1.0078250
 NucSpn=           1           1           1           1           1           1           1           1           1           1
 AtZEff=   0.0000000   0.0000000   0.0000000   0.0000000   0.0000000   0.0000000   0.0000000   0.0000000   0.0000000   0.0000000
 NQMom=    0.0000000   0.0000000   0.0000000   0.0000000   0.0000000   0.0000000   0.0000000   0.0000000   0.0000000   0.0000000
 NMagM=    2.7928460   2.7928460   2.7928460   2.7928460   2.7928460   2.7928460   2.7928460   2.7928460   2.7928460   2.7928460
 AtZNuc=   1.0000000   1.0000000   1.0000000   1.0000000   1.0000000   1.0000000   1.0000000   1.0000000   1.0000000   1.0000000

  Atom        41          42          43          44          45          46
 IAtWgt=           1           1           1           1           1           1
 AtmWgt=   1.0078250   1.0078250   1.0078250   1.0078250   1.0078250   1.0078250
 NucSpn=           1           1           1           1           1           1
 AtZEff=   0.0000000   0.0000000   0.0000000   0.0000000   0.0000000   0.0000000
 NQMom=    0.0000000   0.0000000   0.0000000   0.0000000   0.0000000   0.0000000
 NMagM=    2.7928460   2.7928460   2.7928460   2.7928460   2.7928460   2.7928460
 AtZNuc=   1.0000000   1.0000000   1.0000000   1.0000000   1.0000000   1.0000000
 Leave Link  101 at Mon Jul 08 16:03:29 2019, MaxMem=   209715200 cpu:         0.0
 (Enter C:\G09W\l103.exe)

 GradGradGradGradGradGradGradGradGradGradGradGradGradGradGradGradGradGrad
 Berny optimization.
 Initialization pass.
                           ----------------------------
                           !    Initial Parameters    !
                           ! (Angstroms and Degrees)  !
 --------------------------                            --------------------------
 ! Name  Definition              Value          Derivative Info.                !
 --------------------------------------------------------------------------------
 ! R1    R(1,2)                  1.3874         estimate D2E/DX2                !
 ! R2    R(1,6)                  1.3858         estimate D2E/DX2                !
 ! R3    R(1,31)                 1.0753         estimate D2E/DX2                !
 ! R4    R(2,3)                  1.3883         estimate D2E/DX2                !
 ! R5    R(2,7)                  1.4216         estimate D2E/DX2                !
 ! R6    R(3,4)                  1.3841         estimate D2E/DX2                !
 ! R7    R(3,32)                 1.0753         estimate D2E/DX2                !
 ! R8    R(4,5)                  1.3862         estimate D2E/DX2                !
 ! R9    R(4,33)                 1.0753         estimate D2E/DX2                !
 ! R10   R(5,6)                  1.3845         estimate D2E/DX2                !
 ! R11   R(5,34)                 1.0751         estimate D2E/DX2                !
 ! R12   R(6,35)                 1.0752         estimate D2E/DX2                !
 ! R13   R(7,8)                  1.3476         estimate D2E/DX2                !
 ! R14   R(7,36)                 0.9964         estimate D2E/DX2                !
 ! R15   R(8,9)                  1.3347         estimate D2E/DX2                !
 ! R16   R(8,10)                 1.5165         estimate D2E/DX2                !
 ! R17   R(9,11)                 1.4561         estimate D2E/DX2                !
 ! R18   R(9,13)                 1.8667         estimate D2E/DX2                !
 ! R19   R(10,12)                1.4114         estimate D2E/DX2                !
 ! R20   R(10,15)                1.5404         estimate D2E/DX2                !
 ! R21   R(10,29)                1.0816         estimate D2E/DX2                !
 ! R22   R(11,12)                1.3551         estimate D2E/DX2                !
 ! R23   R(11,14)                1.1798         estimate D2E/DX2                !
 ! R24   R(15,16)                1.5205         estimate D2E/DX2                !
 ! R25   R(15,17)                1.3957         estimate D2E/DX2                !
 ! R26   R(15,30)                1.0805         estimate D2E/DX2                !
 ! R27   R(16,18)                1.387          estimate D2E/DX2                !
 ! R28   R(16,22)                1.392          estimate D2E/DX2                !
 ! R29   R(17,37)                0.9442         estimate D2E/DX2                !
 ! R30   R(18,19)                1.385          estimate D2E/DX2                !
 ! R31   R(18,38)                1.0766         estimate D2E/DX2                !
 ! R32   R(19,20)                1.3897         estimate D2E/DX2                !
 ! R33   R(19,39)                1.0753         estimate D2E/DX2                !
 ! R34   R(20,21)                1.3934         estimate D2E/DX2                !
 ! R35   R(20,23)                1.4905         estimate D2E/DX2                !
 ! R36   R(21,22)                1.3819         estimate D2E/DX2                !
 ! R37   R(21,40)                1.0752         estimate D2E/DX2                !
 ! R38   R(22,41)                1.0746         estimate D2E/DX2                !
 ! R39   R(23,24)                1.3925         estimate D2E/DX2                !
 ! R40   R(23,28)                1.3926         estimate D2E/DX2                !
 ! R41   R(24,25)                1.3844         estimate D2E/DX2                !
 ! R42   R(24,42)                1.0755         estimate D2E/DX2                !
 ! R43   R(25,26)                1.385          estimate D2E/DX2                !
 ! R44   R(25,43)                1.0759         estimate D2E/DX2                !
 ! R45   R(26,27)                1.385          estimate D2E/DX2                !
 ! R46   R(26,44)                1.0756         estimate D2E/DX2                !
 ! R47   R(27,28)                1.3843         estimate D2E/DX2                !
 ! R48   R(27,45)                1.0758         estimate D2E/DX2                !
 ! R49   R(28,46)                1.0755         estimate D2E/DX2                !
 ! A1    A(2,1,6)              119.934          estimate D2E/DX2                !
 ! A2    A(2,1,31)             119.8282         estimate D2E/DX2                !
 ! A3    A(6,1,31)             120.2299         estimate D2E/DX2                !
 ! A4    A(1,2,3)              119.8482         estimate D2E/DX2                !
 ! A5    A(1,2,7)              121.1102         estimate D2E/DX2                !
 ! A6    A(3,2,7)              119.0159         estimate D2E/DX2                !
 ! A7    A(2,3,4)              119.9697         estimate D2E/DX2                !
 ! A8    A(2,3,32)             119.3201         estimate D2E/DX2                !
 ! A9    A(4,3,32)             120.7082         estimate D2E/DX2                !
 ! A10   A(3,4,5)              120.2389         estimate D2E/DX2                !
 ! A11   A(3,4,33)             119.625          estimate D2E/DX2                !
 ! A12   A(5,4,33)             120.1326         estimate D2E/DX2                !
 ! A13   A(4,5,6)              119.7337         estimate D2E/DX2                !
 ! A14   A(4,5,34)             120.1375         estimate D2E/DX2                !
 ! A15   A(6,5,34)             120.1282         estimate D2E/DX2                !
 ! A16   A(1,6,5)              120.2544         estimate D2E/DX2                !
 ! A17   A(1,6,35)             119.5761         estimate D2E/DX2                !
 ! A18   A(5,6,35)             120.1615         estimate D2E/DX2                !
 ! A19   A(2,7,8)              126.6724         estimate D2E/DX2                !
 ! A20   A(2,7,36)             117.0146         estimate D2E/DX2                !
 ! A21   A(8,7,36)             115.2818         estimate D2E/DX2                !
 ! A22   A(7,8,9)              127.8566         estimate D2E/DX2                !
 ! A23   A(7,8,10)             124.405          estimate D2E/DX2                !
 ! A24   A(9,8,10)             107.6811         estimate D2E/DX2                !
 ! A25   A(8,9,11)             109.8893         estimate D2E/DX2                !
 ! A26   A(8,9,13)             126.786          estimate D2E/DX2                !
 ! A27   A(11,9,13)            123.3155         estimate D2E/DX2                !
 ! A28   A(8,10,12)            103.6547         estimate D2E/DX2                !
 ! A29   A(8,10,15)            113.6173         estimate D2E/DX2                !
 ! A30   A(8,10,29)            111.5293         estimate D2E/DX2                !
 ! A31   A(12,10,15)           109.3491         estimate D2E/DX2                !
 ! A32   A(12,10,29)           108.4955         estimate D2E/DX2                !
 ! A33   A(15,10,29)           109.9038         estimate D2E/DX2                !
 ! A34   A(9,11,12)            106.8068         estimate D2E/DX2                !
 ! A35   A(9,11,14)            130.8991         estimate D2E/DX2                !
 ! A36   A(12,11,14)           122.2931         estimate D2E/DX2                !
 ! A37   A(10,12,11)           111.8647         estimate D2E/DX2                !
 ! A38   A(10,15,16)           112.4235         estimate D2E/DX2                !
 ! A39   A(10,15,17)           109.8798         estimate D2E/DX2                !
 ! A40   A(10,15,30)           107.3782         estimate D2E/DX2                !
 ! A41   A(16,15,17)           113.5737         estimate D2E/DX2                !
 ! A42   A(16,15,30)           107.5984         estimate D2E/DX2                !
 ! A43   A(17,15,30)           105.5379         estimate D2E/DX2                !
 ! A44   A(15,16,18)           119.5229         estimate D2E/DX2                !
 ! A45   A(15,16,22)           122.2945         estimate D2E/DX2                !
 ! A46   A(18,16,22)           118.18           estimate D2E/DX2                !
 ! A47   A(15,17,37)           110.1236         estimate D2E/DX2                !
 ! A48   A(16,18,19)           121.1325         estimate D2E/DX2                !
 ! A49   A(16,18,38)           119.7568         estimate D2E/DX2                !
 ! A50   A(19,18,38)           119.1103         estimate D2E/DX2                !
 ! A51   A(18,19,20)           120.8449         estimate D2E/DX2                !
 ! A52   A(18,19,39)           119.4073         estimate D2E/DX2                !
 ! A53   A(20,19,39)           119.7418         estimate D2E/DX2                !
 ! A54   A(19,20,21)           117.9335         estimate D2E/DX2                !
 ! A55   A(19,20,23)           121.0665         estimate D2E/DX2                !
 ! A56   A(21,20,23)           121.0            estimate D2E/DX2                !
 ! A57   A(20,21,22)           121.2058         estimate D2E/DX2                !
 ! A58   A(20,21,40)           119.5846         estimate D2E/DX2                !
 ! A59   A(22,21,40)           119.203          estimate D2E/DX2                !
 ! A60   A(16,22,21)           120.7022         estimate D2E/DX2                !
 ! A61   A(16,22,41)           120.3842         estimate D2E/DX2                !
 ! A62   A(21,22,41)           118.9105         estimate D2E/DX2                !
 ! A63   A(20,23,24)           120.7908         estimate D2E/DX2                !
 ! A64   A(20,23,28)           120.7873         estimate D2E/DX2                !
 ! A65   A(24,23,28)           118.4219         estimate D2E/DX2                !
 ! A66   A(23,24,25)           120.7989         estimate D2E/DX2                !
 ! A67   A(23,24,42)           119.5917         estimate D2E/DX2                !
 ! A68   A(25,24,42)           119.5965         estimate D2E/DX2                !
 ! A69   A(24,25,26)           120.2369         estimate D2E/DX2                !
 ! A70   A(24,25,43)           119.6779         estimate D2E/DX2                !
 ! A71   A(26,25,43)           120.0834         estimate D2E/DX2                !
 ! A72   A(25,26,27)           119.5069         estimate D2E/DX2                !
 ! A73   A(25,26,44)           120.2483         estimate D2E/DX2                !
 ! A74   A(27,26,44)           120.2448         estimate D2E/DX2                !
 ! A75   A(26,27,28)           120.2405         estimate D2E/DX2                !
 ! A76   A(26,27,45)           120.0877         estimate D2E/DX2                !
 ! A77   A(28,27,45)           119.6706         estimate D2E/DX2                !
 ! A78   A(23,28,27)           120.7949         estimate D2E/DX2                !
 ! A79   A(23,28,46)           119.612          estimate D2E/DX2                !
 ! A80   A(27,28,46)           119.5825         estimate D2E/DX2                !
 ! D1    D(6,1,2,3)             -1.4659         estimate D2E/DX2                !
 ! D2    D(6,1,2,7)           -179.6017         estimate D2E/DX2                !
 ! D3    D(31,1,2,3)           177.5124         estimate D2E/DX2                !
 ! D4    D(31,1,2,7)            -0.6234         estimate D2E/DX2                !
 ! D5    D(2,1,6,5)              1.4277         estimate D2E/DX2                !
 ! D6    D(2,1,6,35)          -179.5942         estimate D2E/DX2                !
 ! D7    D(31,1,6,5)          -177.5464         estimate D2E/DX2                !
 ! D8    D(31,1,6,35)            1.4316         estimate D2E/DX2                !
 ! D9    D(1,2,3,4)              0.3478         estimate D2E/DX2                !
 ! D10   D(1,2,3,32)           179.8379         estimate D2E/DX2                !
 ! D11   D(7,2,3,4)            178.5226         estimate D2E/DX2                !
 ! D12   D(7,2,3,32)            -1.9873         estimate D2E/DX2                !
 ! D13   D(1,2,7,8)            -54.528          estimate D2E/DX2                !
 ! D14   D(1,2,7,36)           113.247          estimate D2E/DX2                !
 ! D15   D(3,2,7,8)            127.3211         estimate D2E/DX2                !
 ! D16   D(3,2,7,36)           -64.904          estimate D2E/DX2                !
 ! D17   D(2,3,4,5)              0.8172         estimate D2E/DX2                !
 ! D18   D(2,3,4,33)          -179.8634         estimate D2E/DX2                !
 ! D19   D(32,3,4,5)          -178.6657         estimate D2E/DX2                !
 ! D20   D(32,3,4,33)            0.6537         estimate D2E/DX2                !
 ! D21   D(3,4,5,6)             -0.8593         estimate D2E/DX2                !
 ! D22   D(3,4,5,34)           179.4445         estimate D2E/DX2                !
 ! D23   D(33,4,5,6)           179.8248         estimate D2E/DX2                !
 ! D24   D(33,4,5,34)            0.1286         estimate D2E/DX2                !
 ! D25   D(4,5,6,1)             -0.2651         estimate D2E/DX2                !
 ! D26   D(4,5,6,35)          -179.2372         estimate D2E/DX2                !
 ! D27   D(34,5,6,1)           179.4311         estimate D2E/DX2                !
 ! D28   D(34,5,6,35)            0.4591         estimate D2E/DX2                !
 ! D29   D(2,7,8,9)            164.0684         estimate D2E/DX2                !
 ! D30   D(2,7,8,10)           -19.0313         estimate D2E/DX2                !
 ! D31   D(36,7,8,9)            -3.8895         estimate D2E/DX2                !
 ! D32   D(36,7,8,10)          173.0108         estimate D2E/DX2                !
 ! D33   D(7,8,9,11)           177.4954         estimate D2E/DX2                !
 ! D34   D(7,8,9,13)            -1.4199         estimate D2E/DX2                !
 ! D35   D(10,8,9,11)            0.1794         estimate D2E/DX2                !
 ! D36   D(10,8,9,13)         -178.736          estimate D2E/DX2                !
 ! D37   D(7,8,10,12)         -179.4263         estimate D2E/DX2                !
 ! D38   D(7,8,10,15)          -60.8484         estimate D2E/DX2                !
 ! D39   D(7,8,10,29)           64.0363         estimate D2E/DX2                !
 ! D40   D(9,8,10,12)           -1.9946         estimate D2E/DX2                !
 ! D41   D(9,8,10,15)          116.5833         estimate D2E/DX2                !
 ! D42   D(9,8,10,29)         -118.532          estimate D2E/DX2                !
 ! D43   D(8,9,11,12)            1.8075         estimate D2E/DX2                !
 ! D44   D(8,9,11,14)         -178.5586         estimate D2E/DX2                !
 ! D45   D(13,9,11,12)        -179.232          estimate D2E/DX2                !
 ! D46   D(13,9,11,14)           0.4018         estimate D2E/DX2                !
 ! D47   D(8,10,12,11)           3.2309         estimate D2E/DX2                !
 ! D48   D(15,10,12,11)       -118.2536         estimate D2E/DX2                !
 ! D49   D(29,10,12,11)        121.8826         estimate D2E/DX2                !
 ! D50   D(8,10,15,16)         170.8454         estimate D2E/DX2                !
 ! D51   D(8,10,15,17)         -61.6179         estimate D2E/DX2                !
 ! D52   D(8,10,15,30)          52.6901         estimate D2E/DX2                !
 ! D53   D(12,10,15,16)        -73.9015         estimate D2E/DX2                !
 ! D54   D(12,10,15,17)         53.6352         estimate D2E/DX2                !
 ! D55   D(12,10,15,30)        167.9432         estimate D2E/DX2                !
 ! D56   D(29,10,15,16)         45.0929         estimate D2E/DX2                !
 ! D57   D(29,10,15,17)        172.6296         estimate D2E/DX2                !
 ! D58   D(29,10,15,30)        -73.0624         estimate D2E/DX2                !
 ! D59   D(9,11,12,10)          -3.2068         estimate D2E/DX2                !
 ! D60   D(14,11,12,10)        177.1206         estimate D2E/DX2                !
 ! D61   D(10,15,16,18)       -116.0304         estimate D2E/DX2                !
 ! D62   D(10,15,16,22)         64.5614         estimate D2E/DX2                !
 ! D63   D(17,15,16,18)        118.4196         estimate D2E/DX2                !
 ! D64   D(17,15,16,22)        -60.9886         estimate D2E/DX2                !
 ! D65   D(30,15,16,18)          1.9949         estimate D2E/DX2                !
 ! D66   D(30,15,16,22)       -177.4133         estimate D2E/DX2                !
 ! D67   D(10,15,17,37)        -70.721          estimate D2E/DX2                !
 ! D68   D(16,15,17,37)         56.1729         estimate D2E/DX2                !
 ! D69   D(30,15,17,37)        173.7994         estimate D2E/DX2                !
 ! D70   D(15,16,18,19)       -179.5178         estimate D2E/DX2                !
 ! D71   D(15,16,18,38)          0.7344         estimate D2E/DX2                !
 ! D72   D(22,16,18,19)         -0.0853         estimate D2E/DX2                !
 ! D73   D(22,16,18,38)       -179.8331         estimate D2E/DX2                !
 ! D74   D(15,16,22,21)        179.1998         estimate D2E/DX2                !
 ! D75   D(15,16,22,41)         -1.4564         estimate D2E/DX2                !
 ! D76   D(18,16,22,21)         -0.216          estimate D2E/DX2                !
 ! D77   D(18,16,22,41)        179.1278         estimate D2E/DX2                !
 ! D78   D(16,18,19,20)          0.3145         estimate D2E/DX2                !
 ! D79   D(16,18,19,39)       -178.7918         estimate D2E/DX2                !
 ! D80   D(38,18,19,20)       -179.9361         estimate D2E/DX2                !
 ! D81   D(38,18,19,39)          0.9575         estimate D2E/DX2                !
 ! D82   D(18,19,20,21)         -0.2337         estimate D2E/DX2                !
 ! D83   D(18,19,20,23)        179.8229         estimate D2E/DX2                !
 ! D84   D(39,19,20,21)        178.8697         estimate D2E/DX2                !
 ! D85   D(39,19,20,23)         -1.0738         estimate D2E/DX2                !
 ! D86   D(19,20,21,22)         -0.0679         estimate D2E/DX2                !
 ! D87   D(19,20,21,40)        178.986          estimate D2E/DX2                !
 ! D88   D(23,20,21,22)        179.8755         estimate D2E/DX2                !
 ! D89   D(23,20,21,40)         -1.0706         estimate D2E/DX2                !
 ! D90   D(19,20,23,24)        -45.0492         estimate D2E/DX2                !
 ! D91   D(19,20,23,28)        134.9386         estimate D2E/DX2                !
 ! D92   D(21,20,23,24)        135.0091         estimate D2E/DX2                !
 ! D93   D(21,20,23,28)        -45.0031         estimate D2E/DX2                !
 ! D94   D(20,21,22,16)          0.296          estimate D2E/DX2                !
 ! D95   D(20,21,22,41)       -179.0573         estimate D2E/DX2                !
 ! D96   D(40,21,22,16)       -178.7614         estimate D2E/DX2                !
 ! D97   D(40,21,22,41)          1.8853         estimate D2E/DX2                !
 ! D98   D(20,23,24,25)        179.9514         estimate D2E/DX2                !
 ! D99   D(20,23,24,42)         -1.3635         estimate D2E/DX2                !
 ! D100  D(28,23,24,25)         -0.0367         estimate D2E/DX2                !
 ! D101  D(28,23,24,42)        178.6484         estimate D2E/DX2                !
 ! D102  D(20,23,28,27)       -179.9573         estimate D2E/DX2                !
 ! D103  D(20,23,28,46)         -1.146          estimate D2E/DX2                !
 ! D104  D(24,23,28,27)          0.0308         estimate D2E/DX2                !
 ! D105  D(24,23,28,46)        178.8421         estimate D2E/DX2                !
 ! D106  D(23,24,25,26)          0.0149         estimate D2E/DX2                !
 ! D107  D(23,24,25,43)        179.5294         estimate D2E/DX2                !
 ! D108  D(42,24,25,26)       -178.6701         estimate D2E/DX2                !
 ! D109  D(42,24,25,43)          0.8443         estimate D2E/DX2                !
 ! D110  D(24,25,26,27)          0.0134         estimate D2E/DX2                !
 ! D111  D(24,25,26,44)        179.9604         estimate D2E/DX2                !
 ! D112  D(43,25,26,27)       -179.499          estimate D2E/DX2                !
 ! D113  D(43,25,26,44)          0.448          estimate D2E/DX2                !
 ! D114  D(25,26,27,28)         -0.0193         estimate D2E/DX2                !
 ! D115  D(25,26,27,45)       -179.6243         estimate D2E/DX2                !
 ! D116  D(44,26,27,28)       -179.9663         estimate D2E/DX2                !
 ! D117  D(44,26,27,45)          0.4287         estimate D2E/DX2                !
 ! D118  D(26,27,28,23)         -0.0031         estimate D2E/DX2                !
 ! D119  D(26,27,28,46)       -178.8147         estimate D2E/DX2                !
 ! D120  D(45,27,28,23)        179.6036         estimate D2E/DX2                !
 ! D121  D(45,27,28,46)          0.7919         estimate D2E/DX2                !
 --------------------------------------------------------------------------------
 Trust Radius=3.00D-01 FncErr=1.00D-07 GrdErr=1.00D-06
 Number of steps in this run=    260 maximum allowed number of steps=    276.
 GradGradGradGradGradGradGradGradGradGradGradGradGradGradGradGradGradGrad

 Leave Link  103 at Mon Jul 08 16:03:29 2019, MaxMem=   209715200 cpu:         0.0
 (Enter C:\G09W\l202.exe)
                          Input orientation:                          
 ---------------------------------------------------------------------
 Center     Atomic      Atomic             Coordinates (Angstroms)
 Number     Number       Type             X           Y           Z
 ---------------------------------------------------------------------
      1          6           0        1.997268    2.649035   -1.404317
      2          6           0        2.518541    2.341918   -0.155754
      3          6           0        2.443143    3.271849    0.872250
      4          6           0        1.842390    4.499173    0.651700
      5          6           0        1.299711    4.798017   -0.588393
      6          6           0        1.376317    3.870157   -1.613104
      7          7           0        3.167936    1.100265    0.083902
      8          6           0        2.663506   -0.128720   -0.142448
      9          6           0        3.324833   -1.286133   -0.208446
     10          6           0        1.186545   -0.432246   -0.304697
     11          6           0        2.387317   -2.381406   -0.412524
     12          8           0        1.153511   -1.828873   -0.505512
     13         35           0        5.167599   -1.531863   -0.039658
     14          8           0        2.565378   -3.544432   -0.500256
     15          6           0        0.343344   -0.074625    0.933818
     16          6           0       -1.150187   -0.178544    0.668364
     17          8           0        0.768913   -0.825538    2.030677
     18          6           0       -1.937436    0.961399    0.736452
     19          6           0       -3.302611    0.903362    0.510505
     20          6           0       -3.925199   -0.303349    0.214646
     21          6           0       -3.132835   -1.447585    0.148202
     22          6           0       -1.769710   -1.388297    0.367629
     23          6           0       -5.394631   -0.372126   -0.025539
     24          6           0       -6.285886    0.292128    0.813224
     25          6           0       -7.650644    0.229181    0.589712
     26          6           0       -8.149805   -0.499709   -0.476934
     27          6           0       -7.273472   -1.165267   -1.317977
     28          6           0       -5.908797   -1.102002   -1.094241
     29          1           0        0.776125    0.050275   -1.181434
     30          1           0        0.559643    0.953669    1.185551
     31          1           0        2.091390    1.944560   -2.211237
     32          1           0        2.847533    3.023927    1.837259
     33          1           0        1.788994    5.216163    1.451252
     34          1           0        0.825547    5.748418   -0.755281
     35          1           0        0.968566    4.099547   -2.581216
     36          1           0        4.145094    1.130338    0.276536
     37          1           0        0.523342   -1.730431    1.919809
     38          1           0       -1.484189    1.910968    0.964526
     39          1           0       -3.883432    1.807442    0.551123
     40          1           0       -3.589422   -2.397970   -0.062618
     41          1           0       -1.191597   -2.291020    0.292114
     42          1           0       -5.910688    0.843418    1.657063
     43          1           0       -8.323407    0.743134    1.253567
     44          1           0       -9.210188   -0.549262   -0.650393
     45          1           0       -7.650667   -1.729238   -2.152877
     46          1           0       -5.236787   -1.607100   -1.765080
 ---------------------------------------------------------------------
                    Distance matrix (angstroms):
                    1          2          3          4          5
     1  C    0.000000
     2  C    1.387428   0.000000
     3  C    2.401970   1.388254   0.000000
     4  C    2.770235   2.400606   1.384150   0.000000
     5  C    2.402174   2.775814   2.402104   1.386232   0.000000
     6  C    1.385753   2.400846   2.770032   2.396293   1.384495
     7  N    2.446211   1.421566   2.421280   3.692160   4.197096
     8  C    3.122837   2.474923   3.555565   4.766791   5.131427
     9  C    4.321815   3.716939   4.766601   6.033842   6.423578
    10  C    3.370568   3.080971   4.084674   5.065937   5.239174
    11  C    5.142094   4.732118   5.797677   6.983687   7.263466
    12  O    4.644506   4.402401   5.438634   6.469765   6.629021
    13  Br   5.421550   4.694376   5.597311   6.921588   7.438350
    14  O    6.284832   5.896608   6.954164   8.157775   8.438373
    15  C    3.952299   3.429042   3.951181   4.821448   5.193689
    16  C    4.711442   4.526750   4.985860   5.553092   5.687495
    17  O    5.037926   4.227819   4.575323   5.604148   6.226206
    18  C    4.786742   4.749484   4.954401   5.177848   5.191722
    19  C    5.899376   6.033171   6.225293   6.278601   6.128400
    20  C    6.812725   6.975415   7.332821   7.518000   7.346325
    21  C    6.746152   6.811077   7.340901   7.769833   7.693996
    22  C    5.799135   5.707673   6.302359   6.913050   6.971786
    23  C    8.103617   8.366677   8.689953   8.750010   8.477110
    24  C    8.892870   9.091672   9.223783   9.153917   8.933580
    25  C   10.144656  10.413054  10.546193  10.409340  10.117858
    26  C   10.664789  11.044981  11.324994  11.229719  10.833821
    27  C   10.025117  10.465879  10.904022  10.911666  10.468644
    28  C    8.756271   9.152124   9.630813   9.721233   9.328917
    29  H    2.880004   3.056086   4.168346   4.928488   4.813200
    30  H    3.412982   2.750203   3.003280   3.808023   4.298091
    31  H    1.075297   2.136671   3.375399   3.845056   3.376773
    32  H    3.372137   2.132011   1.075286   2.142945   3.380375
    33  H    3.845491   3.372831   2.131551   1.075272   2.138784
    34  H    3.376441   3.850961   3.376221   2.138733   1.075149
    35  H    2.132441   3.372617   3.845242   3.372687   2.137489
    36  H    3.121676   2.073759   2.799568   4.097834   4.721883
    37  H    5.692275   4.987265   5.459471   6.492762   7.036651
    38  H    4.275126   4.178827   4.157457   4.226440   4.300780
    39  H    6.254171   6.463018   6.501781   6.327762   6.091552
    40  H    7.647452   7.731910   8.331426   8.808258   8.715635
    41  H    6.119713   5.952296   6.670338   7.445878   7.565471
    42  H    8.669952   8.751212   8.734970   8.630499   8.524716
    43  H   10.826502  11.049440  11.066092  10.854193  10.603740
    44  H   11.679237  12.089941  12.357971  12.220541  11.792167
    45  H   10.621312  11.134433  11.663930  11.695165  11.187579
    46  H    8.400975   8.850412   9.473171   9.656197   9.226913
                    6          7          8          9         10
     6  C    0.000000
     7  N    3.709721   0.000000
     8  C    4.450921   1.347623   0.000000
     9  C    5.688331   2.409352   1.334659   0.000000
    10  C    4.500957   2.534859   1.516531   2.304488   0.000000
    11  C    6.445584   3.602477   2.285567   1.456093   2.291878
    12  O    5.809935   3.603494   2.302699   2.257754   1.411377
    13  Br   6.784642   3.307872   2.872257   1.866724   4.138622
    14  O    7.591339   4.719908   3.435803   2.400383   3.409564
    15  C    4.807822   3.175066   2.558208   3.414937   1.540390
    16  C    5.289641   4.541270   3.899250   4.692691   2.543920
    17  O    5.974582   3.640599   2.966060   3.429074   2.404801
    18  C    4.996223   5.148779   4.809313   5.799630   3.575681
    19  C    5.933292   6.487583   6.089835   7.016680   4.754043
    20  C    6.990343   7.231859   6.600685   7.328563   5.139675
    21  C    7.191177   6.796719   5.951592   6.469524   4.460165
    22  C    6.439886   5.536586   4.636822   5.128028   3.178915
    23  C    8.146353   8.688928   8.062660   8.769146   6.587368
    24  C    8.797654   9.516288   9.010108   9.792887   7.590236
    25  C    9.979736  10.865372  10.346296  11.108300   8.906928
    26  C   10.541993  11.444025  10.824842  11.504689   9.338182
    27  C   10.013064  10.775941  10.059813  10.656910   8.551956
    28  C    8.835410   9.414090   8.679722   9.277848   7.170483
    29  H    3.890767   2.902467   2.161883   3.037862   1.081637
    30  H    4.123752   2.835192   2.713188   3.821808   2.129461
    31  H    2.139396   2.671975   2.984241   3.996240   3.178497
    32  H    3.845203   2.622479   3.727236   4.794720   4.392265
    33  H    3.372286   4.551016   5.645567   6.884276   5.945656
    34  H    2.137071   5.272224   6.188248   7.485343   6.207572
    35  H    1.075231   4.575563   5.167074   6.339368   5.076140
    36  H    4.329373   0.996419   1.988939   2.597570   3.395955
    37  H    6.676498   4.286872   3.376194   3.546156   2.659615
    38  H    4.320312   4.803645   4.752798   5.892708   3.772850
    39  H    6.050093   7.102125   6.862373   7.880751   5.608324
    40  H    8.145673   7.610585   6.652441   7.004596   5.170351
    41  H    6.941480   5.527178   4.441419   4.653869   3.076814
    42  H    8.541404   9.217495   8.814766   9.659708   7.473054
    43  H   10.586818  11.556237  11.109511  11.913727   9.708187
    44  H   11.512262  12.509120  11.891992  12.564436  10.403137
    45  H   10.636307  11.404010  10.629471  11.155212   9.121089
    46  H    8.588165   9.021526   8.199584   8.707897   6.691203
                   11         12         13         14         15
    11  C    0.000000
    12  O    1.355071   0.000000
    13  Br   2.930993   4.051930   0.000000
    14  O    1.179844   2.221832   3.321767   0.000000
    15  C    3.363287   2.409445   5.132702   4.362747   0.000000
    16  C    4.305212   3.067343   6.499784   5.147844   1.520493
    17  O    3.318010   2.754424   4.912598   4.126172   1.395736
    18  C    5.585515   4.345348   7.569691   6.489013   2.512818
    19  C    6.634528   5.324887   8.830485   7.432214   3.798505
    20  C    6.675292   5.351556   9.178937   7.289945   4.334741
    21  C    5.626590   4.352641   8.302987   6.106300   3.819166
    22  C    4.344626   3.082483   6.950737   4.918855   2.551725
    23  C    8.046470   6.725374  10.625718   8.581994   5.825224
    24  C    9.158313   7.847441  11.629130   9.735979   6.640462
    25  C   10.420187   9.107593  12.953947  10.945104   8.007156
    26  C   10.704012   9.397829  13.364498  11.139391   8.620006
    27  C    9.779043   8.492027  12.511944  10.155396   8.017229
    28  C    8.421824   7.123983  11.134787   8.839113   6.652653
    29  H    3.016660   2.032360   4.805399   4.072757   2.162681
    30  H    4.125162   3.309821   5.377013   5.205558   1.080529
    31  H    4.694350   4.245929   5.124874   5.768982   4.126032
    32  H    5.872899   5.648713   5.446168   6.977602   4.085118
    33  H    7.845681   7.339298   7.692440   9.008839   5.509091
    34  H    8.285569   7.588497   8.506940   9.457754   6.082220
    35  H    6.979888   6.284021   7.470219   8.081499   5.492730
    36  H    3.987095   4.279965   2.869287   4.995236   4.041937
    37  H    3.055806   2.507785   5.044607   3.649277   1.935529
    38  H    5.942163   4.806754   7.556967   6.950250   2.698777
    39  H    7.602457   6.301592   9.665461   8.446011   4.642657
    40  H    5.986996   4.797441   8.799778   6.275943   4.675197
    41  H    3.648741   2.519785   6.412937   4.039029   2.771324
    42  H    9.139998   7.856257  11.456407   9.785241   6.362295
    43  H   11.280878   9.976049  13.742463  11.833206   8.711116
    44  H   11.743741  10.443402  14.424259  12.151442   9.695616
    45  H   10.208588   8.957527  12.992790  10.506839   8.727522
    46  H    7.781768   6.517024  10.546753   8.137986   6.385170
                   16         17         18         19         20
    16  C    0.000000
    17  O    2.440787   0.000000
    18  C    1.387035   3.491774   0.000000
    19  C    2.414202   4.677320   1.384963   0.000000
    20  C    2.814627   5.060172   2.413104   1.389712   0.000000
    21  C    2.410794   4.376562   2.752857   2.384751   1.393389
    22  C    1.392032   3.086589   2.384373   2.760779   2.417984
    23  C    4.305146   6.513285   3.783004   2.508139   1.490520
    24  C    5.159256   7.245796   4.400322   3.060257   2.507136
    25  C    6.513706   8.606843   5.761807   4.400703   3.781958
    26  C    7.099965   9.270265   6.496204   5.141880   4.285340
    27  C    6.512587   8.718306   6.100546   4.836353   3.781900
    28  C    5.157899   7.377896   4.835366   3.659085   2.507128
    29  H    2.680446   3.329378   3.445555   4.497388   4.916964
    30  H    2.114925   1.980810   2.537155   3.921125   4.757789
    31  H    4.827784   5.236050   5.087919   6.130842   6.865664
    32  H    5.253941   4.379093   5.325573   6.639378   7.718390
    33  H    6.193106   6.154547   5.700898   6.738672   8.040287
    34  H    6.407743   7.140145   5.724936   6.489874   7.754626
    35  H    5.775028   6.750250   5.412924   6.165816   7.152012
    36  H    5.468702   4.277974   6.102232   7.454835   8.196885
    37  H    2.602915   0.944155   3.834281   4.853959   4.973295
    38  H    2.136663   3.701569   1.076630   2.127925   3.379948
    39  H    3.380609   5.546709   2.130032   1.075343   2.137849
    40  H    3.377877   5.084241   3.827915   3.362963   2.139406
    41  H    2.146121   3.002305   3.366295   3.835121   3.380742
    42  H    4.968330   6.895076   4.080218   2.849606   2.708839
    43  H    7.255828   9.259315   6.410591   5.078012   4.638827
    44  H    8.175584  10.336678   7.556346   6.193324   5.360958
    45  H    7.253985   9.445005   6.944693   5.738447   4.638689
    46  H    4.966158   7.147520   4.872429   3.901505   2.709123
                   21         22         23         24         25
    21  C    0.000000
    22  C    1.381945   0.000000
    23  C    2.510482   3.785134   0.000000
    24  C    3.662047   4.839238   1.392513   0.000000
    25  C    4.839119   6.103355   2.414477   1.384371   0.000000
    26  C    5.143856   6.496806   2.794820   2.401189   1.384982
    27  C    4.401620   5.760417   2.414438   2.764298   2.392911
    28  C    3.060892   4.398985   1.392555   2.392534   2.764376
    29  H    4.392207   3.309133   6.292277   7.342285   8.612746
    30  H    4.525098   3.402894   6.219152   6.887491   8.263699
    31  H    6.660790   5.715468   8.135405   9.058513  10.280811
    32  H    7.655856   6.553355   9.106946   9.588051  10.935205
    33  H    8.386172   7.580073   9.220323   9.479287  10.710696
    34  H    8.262417   7.676522   8.756951   9.099659  10.203764
    35  H    7.419022   6.805165   8.186429   8.868243   9.966208
    36  H    7.722073   6.429364   9.662039  10.478357  11.834255
    37  H    4.072619   2.790055   6.375875   7.188940   8.510187
    38  H    3.829399   3.364960   4.635116   5.069500   6.402660
    39  H    3.364661   3.835914   2.714181   2.852483   4.084640
    40  H    1.075243   2.125066   2.713706   3.908279   4.880674
    41  H    2.121438   1.074628   4.631258   5.735503   6.939688
    42  H    3.904078   4.877591   2.138928   1.075527   2.131659
    43  H    5.741352   6.948297   3.384914   2.132792   1.075854
    44  H    6.195075   7.556524   3.870439   3.376634   2.139161
    45  H    5.077903   6.407406   3.384822   3.840092   3.370044
    46  H    2.848281   4.076389   2.139177   3.369767   3.839750
                   26         27         28         29         30
    26  C    0.000000
    27  C    1.385020   0.000000
    28  C    2.401238   1.384340   0.000000
    29  H    8.970565   8.142002   6.784064   0.000000
    30  H    8.985024   8.492069   7.159885   2.542755   0.000000
    31  H   10.670723   9.908056   8.633204   2.525615   3.855682
    32  H   11.777646  11.399105  10.113867   4.716550   3.153590
    33  H   11.626213  11.424516  10.278849   5.885859   4.444182
    34  H   10.939539  10.663479   9.612208   5.714270   5.179493
    35  H   10.427169   9.861300   8.750162   4.288709   4.924662
    36  H   12.425350  11.755676  10.389567   3.826508   3.703104
    37  H    9.081989   8.461263   7.131047   3.585041   2.782956
    38  H    7.233229   6.941818   5.735300   3.629923   2.267713
    39  H    4.958002   4.880871   3.908221   5.272652   4.568626
    40  H    4.957030   4.082610   2.850137   5.128709   5.477787
    41  H    7.226125   6.391316   5.058431   3.394840   3.793821
    42  H    3.372177   3.839643   3.369620   7.307504   6.488425
    43  H    2.137623   3.370044   3.840191   9.445145   8.885805
    44  H    1.075619   2.139159   3.376641  10.018378  10.053810
    45  H    2.137678   1.075824   2.132662   8.667248   9.260253
    46  H    3.372137   2.131479   1.075521   6.264395   6.990162
                   31         32         33         34         35
    31  H    0.000000
    32  H    4.257594   0.000000
    33  H    4.920229   2.464834   0.000000
    34  H    4.265150   4.269958   2.465829   0.000000
    35  H    2.457964   4.920406   4.263887   2.464400   0.000000
    36  H    3.327112   2.775824   4.860569   5.780199   5.203199
    37  H    5.747162   5.292693   7.076481   7.948624   7.378760
    38  H    4.782402   4.556770   4.677066   4.797774   4.835098
    39  H    6.583915   6.959876   6.678774   6.277935   6.213467
    40  H    7.466308   8.627913   9.444267   9.291683   8.326843
    41  H    5.914804   6.852059   8.159983   8.354548   7.332235
    42  H    8.955976   9.027376   8.857108   8.674981   8.711459
    43  H   11.041571  11.416331  11.059282  10.620344  10.597728
    44  H   11.678230  12.819701  12.595199  11.848534  11.355463
    45  H   10.411910  12.195326  12.261139  11.389241  10.413904
    46  H    8.155705   9.988968  10.308410   9.585157   8.469847
                   36         37         38         39         40
    36  H    0.000000
    37  H    4.899126   0.000000
    38  H    5.724643   4.266443   0.000000
    39  H    8.061706   5.814594   2.436798   0.000000
    40  H    8.508039   4.614158   4.904485   4.260119   0.000000
    41  H    6.339259   2.429952   4.265495   4.910240   2.426281
    42  H   10.154158   6.934730   4.605775   2.502441   4.341909
    43  H   12.512715   9.210178   6.944227   4.619476   5.831766
    44  H   13.492361  10.136208   8.267512   5.947438   5.946109
    45  H   12.378174   9.132426   7.809914   5.831962   4.616286
    46  H    9.984060   6.839057   5.823190   4.342288   2.497532
                   41         42         43         44         45
    41  H    0.000000
    42  H    5.827316   0.000000
    43  H    7.809814   2.448281   0.000000
    44  H    8.259530   4.260353   2.466117   0.000000
    45  H    6.929153   4.915458   4.262518   2.466152   0.000000
    46  H    4.589483   4.262657   4.915593   4.260219   2.447881
                   46
    46  H    0.000000
 Stoichiometry    C23H18BrNO3
 Framework group  C1[X(C23H18BrNO3)]
 Deg. of freedom   132
 Full point group                 C1      NOp   1
 Largest Abelian subgroup         C1      NOp   1
 Largest concise Abelian subgroup C1      NOp   1
                         Standard orientation:                         
 ---------------------------------------------------------------------
 Center     Atomic      Atomic             Coordinates (Angstroms)
 Number     Number       Type             X           Y           Z
 ---------------------------------------------------------------------
      1          6           0       -1.997268    2.649035    1.404317
      2          6           0       -2.518541    2.341918    0.155754
      3          6           0       -2.443143    3.271849   -0.872250
      4          6           0       -1.842390    4.499173   -0.651700
      5          6           0       -1.299711    4.798017    0.588393
      6          6           0       -1.376317    3.870157    1.613104
      7          7           0       -3.167936    1.100265   -0.083902
      8          6           0       -2.663506   -0.128720    0.142448
      9          6           0       -3.324833   -1.286133    0.208446
     10          6           0       -1.186545   -0.432246    0.304697
     11          6           0       -2.387317   -2.381406    0.412524
     12          8           0       -1.153511   -1.828873    0.505512
     13         35           0       -5.167599   -1.531863    0.039658
     14          8           0       -2.565378   -3.544432    0.500256
     15          6           0       -0.343344   -0.074625   -0.933818
     16          6           0        1.150187   -0.178544   -0.668364
     17          8           0       -0.768913   -0.825538   -2.030677
     18          6           0        1.937436    0.961399   -0.736452
     19          6           0        3.302611    0.903362   -0.510505
     20          6           0        3.925199   -0.303349   -0.214646
     21          6           0        3.132835   -1.447585   -0.148202
     22          6           0        1.769710   -1.388297   -0.367629
     23          6           0        5.394631   -0.372126    0.025539
     24          6           0        6.285886    0.292128   -0.813224
     25          6           0        7.650644    0.229181   -0.589712
     26          6           0        8.149805   -0.499709    0.476934
     27          6           0        7.273472   -1.165267    1.317977
     28          6           0        5.908797   -1.102002    1.094241
     29          1           0       -0.776125    0.050275    1.181434
     30          1           0       -0.559643    0.953669   -1.185551
     31          1           0       -2.091390    1.944560    2.211237
     32          1           0       -2.847533    3.023927   -1.837259
     33          1           0       -1.788994    5.216163   -1.451252
     34          1           0       -0.825547    5.748418    0.755281
     35          1           0       -0.968566    4.099547    2.581216
     36          1           0       -4.145094    1.130338   -0.276536
     37          1           0       -0.523342   -1.730431   -1.919809
     38          1           0        1.484189    1.910968   -0.964526
     39          1           0        3.883432    1.807442   -0.551123
     40          1           0        3.589422   -2.397970    0.062618
     41          1           0        1.191597   -2.291020   -0.292114
     42          1           0        5.910688    0.843418   -1.657063
     43          1           0        8.323407    0.743134   -1.253567
     44          1           0        9.210188   -0.549262    0.650393
     45          1           0        7.650667   -1.729238    2.152877
     46          1           0        5.236787   -1.607100    1.765080
 ---------------------------------------------------------------------
 Rotational constants (GHZ):      0.2492522      0.0675823      0.0563433
 Leave Link  202 at Mon Jul 08 16:03:30 2019, MaxMem=   209715200 cpu:         1.0
 (Enter C:\G09W\l301.exe)
 Standard basis: 6-311++G(d,p) (5D, 7F)
 Ernie: Thresh=  0.10000D-02 Tol=  0.10000D-05 Strict=F.
 There are   798 symmetry adapted cartesian basis functions of A   symmetry.
 There are   768 symmetry adapted basis functions of A   symmetry.
   768 basis functions,  1228 primitive gaussians,   798 cartesian basis functions
   111 alpha electrons      111 beta electrons
       nuclear repulsion energy      2870.5950711246 Hartrees.
 IExCor=  402 DFT=T Ex+Corr=B3LYP ExCW=0 ScaHFX=  0.200000
 ScaDFX=  0.800000  0.720000  1.000000  0.810000 ScalE2=  1.000000  1.000000
 IRadAn=      0 IRanWt=     -1 IRanGd=            0 ICorTp=0 IEmpDi=  4
 NAtoms=   46 NActive=   46 NUniq=   46 SFac= 1.00D+00 NAtFMM=   60 NAOKFM=F Big=F
 Integral buffers will be    262144 words long.
 Raffenetti 2 integral format.
 Two-electron integral symmetry is turned on.
 Leave Link  301 at Mon Jul 08 16:03:30 2019, MaxMem=   209715200 cpu:         0.0
 (Enter C:\G09W\l302.exe)
 NPDir=0 NMtPBC=     1 NCelOv=     1 NCel=       1 NClECP=     1 NCelD=      1
         NCelK=      1 NCelE2=     1 NClLst=     1 CellRange=     0.0.
 One-electron integrals computed using PRISM.
 NBasis=   768 RedAO= T EigKep=  1.02D-06  NBF=   768
 NBsUse=   762 1.00D-06 EigRej=  7.71D-07 NBFU=   762
 Precomputing XC quadrature grid using
 IXCGrd= 4 IRadAn=           0 IRanWt=          -1 IRanGd=           0 AccXCQ= 0.00D+00.
 Generated NRdTot=       0 NPtTot=           0 NUsed=           0 NTot=          16
 NSgBfM=   749   753   756   756   756 MxSgAt=    46 MxSgA2=    46.
 Leave Link  302 at Mon Jul 08 16:03:34 2019, MaxMem=   209715200 cpu:         4.0
 (Enter C:\G09W\l303.exe)
 DipDrv:  MaxL=1.
 Leave Link  303 at Mon Jul 08 16:03:34 2019, MaxMem=   209715200 cpu:         0.0
 (Enter C:\G09W\l401.exe)
 ExpMin= 3.50D-02 ExpMax= 4.40D+05 ExpMxC= 1.51D+04 IAcc=3 IRadAn=         5 AccDes= 0.00D+00
 Harris functional with IExCor=  402 and IRadAn=       5 diagonalized for initial guess.
 HarFok:  IExCor=  402 AccDes= 0.00D+00 IRadAn=         5 IDoV= 1 UseB2=F ITyADJ=14
 ICtDFT=  3500011 ScaDFX=  1.000000  1.000000  1.000000  1.000000
 FoFCou: FMM=F IPFlag=           0 FMFlag=      100000 FMFlg1=           0
         NFxFlg=           0 DoJE=T BraDBF=F KetDBF=T FulRan=T
         wScrn=  0.000000 ICntrl=     500 IOpCl=  0 I1Cent=   200000004 NGrid=           0
         NMat0=    1 NMatS0=      1 NMatT0=    0 NMatD0=    1 NMtDS0=    0 NMtDT0=    0
 Petite list used in FoFCou.
 Harris En= -3742.30256495530    
 JPrj=0 DoOrth=F DoCkMO=F.
 Leave Link  401 at Mon Jul 08 16:04:28 2019, MaxMem=   209715200 cpu:        54.0
 (Enter C:\G09W\l502.exe)
 Closed shell SCF:
 Using DIIS extrapolation, IDIIS=  1040.
 Integral symmetry usage will be decided dynamically.
 IVT=     1938594 IEndB=     1938594 NGot=   209715200 MDV=   208430849
 LenX=   208430849 LenY=   207793247
 Requested convergence on RMS density matrix=1.00D-08 within 128 cycles.
 Requested convergence on MAX density matrix=1.00D-06.
 Requested convergence on             energy=1.00D-06.
 No special actions if energy rises.
 Fock matrices will be formed incrementally for  20 cycles.

 Cycle   1  Pass 1  IDiag  1:
 FoFJK:  IHMeth= 1 ICntrl=       0 DoSepK=F KAlg= 0 I1Cent=   0 FoldK=F
 IRaf= 750000000 NMat=   1 IRICut=       1 DoRegI=T DoRafI=F ISym2E= 0.
 FoFCou: FMM=F IPFlag=           0 FMFlag=      100000 FMFlg1=           0
         NFxFlg=           0 DoJE=F BraDBF=F KetDBF=F FulRan=T
         wScrn=  0.000000 ICntrl=       0 IOpCl=  0 I1Cent=           0 NGrid=           0
         NMat0=    1 NMatS0=      1 NMatT0=    0 NMatD0=    1 NMtDS0=    0 NMtDT0=    0
 Symmetry not used in FoFCou.
 E= -3741.47965597565    
 DIIS: error= 7.65D-02 at cycle   1 NSaved=   1.
 NSaved= 1 IEnMin= 1 EnMin= -3741.47965597565     IErMin= 1 ErrMin= 7.65D-02
 ErrMax= 7.65D-02  0.00D+00 EMaxC= 1.00D-01 BMatC= 1.94D+00 BMatP= 1.94D+00
 IDIUse=3 WtCom= 2.35D-01 WtEn= 7.65D-01
 Coeff-Com:  0.100D+01
 Coeff-En:   0.100D+01
 Coeff:      0.100D+01
 Gap=     0.266 Goal=   None    Shift=    0.000
 GapD=    0.266 DampG=1.000 DampE=0.500 DampFc=0.5000 IDamp=-1.
 Damping current iteration by 5.00D-01
 RMSDP=3.69D-02 MaxDP=5.90D+00              OVMax= 2.80D-01

 Cycle   2  Pass 1  IDiag  1:
 RMSU=  1.84D-02    CP:  1.02D+00
 E= -3741.73204938429     Delta-E=       -0.252393408647 Rises=F Damp=T
 DIIS: error= 3.93D-02 at cycle   2 NSaved=   2.
 NSaved= 2 IEnMin= 2 EnMin= -3741.73204938429     IErMin= 2 ErrMin= 3.93D-02
 ErrMax= 3.93D-02  0.00D+00 EMaxC= 1.00D-01 BMatC= 2.69D-01 BMatP= 1.94D+00
 IDIUse=3 WtCom= 6.07D-01 WtEn= 3.93D-01
 Coeff-Com: -0.103D+00 0.110D+01
 Coeff-En:   0.221D+00 0.779D+00
 Coeff:      0.240D-01 0.976D+00
 Gap=     0.342 Goal=   None    Shift=    0.000
 RMSDP=1.71D-02 MaxDP=3.29D+00 DE=-2.52D-01 OVMax= 1.77D-01

 Cycle   3  Pass 1  IDiag  1:
 RMSU=  7.32D-03    CP:  9.01D-01  2.46D-01
 E= -3742.00339184937     Delta-E=       -0.271342465077 Rises=F Damp=F
 DIIS: error= 1.62D-02 at cycle   3 NSaved=   3.
 NSaved= 3 IEnMin= 3 EnMin= -3742.00339184937     IErMin= 3 ErrMin= 1.62D-02
 ErrMax= 1.62D-02  0.00D+00 EMaxC= 1.00D-01 BMatC= 2.01D-01 BMatP= 2.69D-01
 IDIUse=3 WtCom= 8.38D-01 WtEn= 1.62D-01
 Coeff-Com: -0.149D+00 0.576D+00 0.573D+00
 Coeff-En:   0.000D+00 0.000D+00 0.100D+01
 Coeff:     -0.125D+00 0.483D+00 0.642D+00
 Gap=     0.195 Goal=   None    Shift=    0.000
 RMSDP=9.08D-03 MaxDP=1.14D+00 DE=-2.71D-01 OVMax= 2.17D-01

 Cycle   4  Pass 1  IDiag  1:
 RMSU=  7.23D-03    CP:  9.40D-01  5.18D-01  9.50D-01
 E= -3742.06096831412     Delta-E=       -0.057576464747 Rises=F Damp=F
 DIIS: error= 1.14D-02 at cycle   4 NSaved=   4.
 NSaved= 4 IEnMin= 4 EnMin= -3742.06096831412     IErMin= 4 ErrMin= 1.14D-02
 ErrMax= 1.14D-02  0.00D+00 EMaxC= 1.00D-01 BMatC= 1.20D-01 BMatP= 2.01D-01
 IDIUse=3 WtCom= 8.86D-01 WtEn= 1.14D-01
 Coeff-Com: -0.755D-01 0.208D+00 0.455D+00 0.413D+00
 Coeff-En:   0.000D+00 0.000D+00 0.414D+00 0.586D+00
 Coeff:     -0.669D-01 0.184D+00 0.450D+00 0.432D+00
 Gap=     0.241 Goal=   None    Shift=    0.000
 RMSDP=7.06D-03 MaxDP=9.09D-01 DE=-5.76D-02 OVMax= 1.05D-01

 Cycle   5  Pass 1  IDiag  1:
 RMSU=  2.93D-03    CP:  8.66D-01  4.79D-01  8.71D-01  3.40D-01
 E= -3742.16038016456     Delta-E=       -0.099411850439 Rises=F Damp=F
 DIIS: error= 1.72D-03 at cycle   5 NSaved=   5.
 NSaved= 5 IEnMin= 5 EnMin= -3742.16038016456     IErMin= 5 ErrMin= 1.72D-03
 ErrMax= 1.72D-03  0.00D+00 EMaxC= 1.00D-01 BMatC= 2.34D-03 BMatP= 1.20D-01
 IDIUse=3 WtCom= 9.83D-01 WtEn= 1.72D-02
 Coeff-Com: -0.186D-01 0.461D-01 0.152D+00 0.205D+00 0.615D+00
 Coeff-En:   0.000D+00 0.000D+00 0.000D+00 0.000D+00 0.100D+01
 Coeff:     -0.182D-01 0.453D-01 0.149D+00 0.202D+00 0.622D+00
 Gap=     0.182 Goal=   None    Shift=    0.000
 RMSDP=1.32D-03 MaxDP=1.37D-01 DE=-9.94D-02 OVMax= 1.50D-02

 Cycle   6  Pass 1  IDiag  1:
 RMSU=  6.90D-04    CP:  8.72D-01  4.83D-01  8.77D-01  4.34D-01  7.16D-01
 E= -3742.16212959679     Delta-E=       -0.001749432232 Rises=F Damp=F
 DIIS: error= 7.19D-04 at cycle   6 NSaved=   6.
 NSaved= 6 IEnMin= 6 EnMin= -3742.16212959679     IErMin= 6 ErrMin= 7.19D-04
 ErrMax= 7.19D-04  0.00D+00 EMaxC= 1.00D-01 BMatC= 4.48D-04 BMatP= 2.34D-03
 IDIUse=3 WtCom= 9.93D-01 WtEn= 7.19D-03
 Coeff-Com: -0.254D-02 0.506D-02 0.312D-01 0.644D-01 0.375D+00 0.527D+00
 Coeff-En:   0.000D+00 0.000D+00 0.000D+00 0.000D+00 0.128D+00 0.872D+00
 Coeff:     -0.252D-02 0.502D-02 0.310D-01 0.640D-01 0.373D+00 0.529D+00
 Gap=     0.181 Goal=   None    Shift=    0.000
 RMSDP=6.14D-04 MaxDP=6.47D-02 DE=-1.75D-03 OVMax= 5.58D-03

 Cycle   7  Pass 1  IDiag  1:
 RMSU=  2.33D-04    CP:  8.78D-01  4.74D-01  9.17D-01  4.49D-01  7.27D-01
                    CP:  5.32D-01
 E= -3742.16247013931     Delta-E=       -0.000340542527 Rises=F Damp=F
 DIIS: error= 3.79D-04 at cycle   7 NSaved=   7.
 NSaved= 7 IEnMin= 7 EnMin= -3742.16247013931     IErMin= 7 ErrMin= 3.79D-04
 ErrMax= 3.79D-04  0.00D+00 EMaxC= 1.00D-01 BMatC= 3.43D-05 BMatP= 4.48D-04
 IDIUse=3 WtCom= 9.96D-01 WtEn= 3.79D-03
 Coeff-Com:  0.230D-04-0.413D-03 0.295D-02 0.124D-01 0.137D+00 0.280D+00
 Coeff-Com:  0.568D+00
 Coeff-En:   0.000D+00 0.000D+00 0.000D+00 0.000D+00 0.000D+00 0.268D-01
 Coeff-En:   0.973D+00
 Coeff:      0.230D-04-0.412D-03 0.293D-02 0.124D-01 0.137D+00 0.279D+00
 Coeff:      0.569D+00
 Gap=     0.181 Goal=   None    Shift=    0.000
 RMSDP=1.89D-04 MaxDP=1.83D-02 DE=-3.41D-04 OVMax= 2.53D-03

 Cycle   8  Pass 1  IDiag  1:
 RMSU=  9.59D-05    CP:  8.76D-01  4.76D-01  9.07D-01  4.38D-01  7.40D-01
                    CP:  5.74D-01  7.02D-01
 E= -3742.16249688480     Delta-E=       -0.000026745489 Rises=F Damp=F
 DIIS: error= 2.23D-04 at cycle   8 NSaved=   8.
 NSaved= 8 IEnMin= 8 EnMin= -3742.16249688480     IErMin= 8 ErrMin= 2.23D-04
 ErrMax= 2.23D-04  0.00D+00 EMaxC= 1.00D-01 BMatC= 1.09D-05 BMatP= 3.43D-05
 IDIUse=3 WtCom= 9.98D-01 WtEn= 2.23D-03
 Coeff-Com:  0.395D-03-0.964D-03-0.197D-02 0.315D-05 0.501D-01 0.130D+00
 Coeff-Com:  0.396D+00 0.426D+00
 Coeff-En:   0.000D+00 0.000D+00 0.000D+00 0.000D+00 0.000D+00 0.000D+00
 Coeff-En:   0.242D+00 0.758D+00
 Coeff:      0.394D-03-0.962D-03-0.197D-02 0.315D-05 0.500D-01 0.130D+00
 Coeff:      0.395D+00 0.427D+00
 Gap=     0.181 Goal=   None    Shift=    0.000
 RMSDP=6.21D-05 MaxDP=6.99D-03 DE=-2.67D-05 OVMax= 9.69D-04

 Cycle   9  Pass 1  IDiag  1:
 RMSU=  2.13D-05    CP:  8.76D-01  4.76D-01  9.07D-01  4.38D-01  7.48D-01
                    CP:  5.86D-01  7.58D-01  5.70D-01
 E= -3742.16250795650     Delta-E=       -0.000011071697 Rises=F Damp=F
 DIIS: error= 1.61D-05 at cycle   9 NSaved=   9.
 NSaved= 9 IEnMin= 9 EnMin= -3742.16250795650     IErMin= 9 ErrMin= 1.61D-05
 ErrMax= 1.61D-05  0.00D+00 EMaxC= 1.00D-01 BMatC= 1.90D-07 BMatP= 1.09D-05
 IDIUse=1 WtCom= 1.00D+00 WtEn= 0.00D+00
 Coeff-Com:  0.202D-03-0.459D-03-0.826D-03-0.671D-03 0.136D-01 0.381D-01
 Coeff-Com:  0.128D+00 0.180D+00 0.643D+00
 Coeff:      0.202D-03-0.459D-03-0.826D-03-0.671D-03 0.136D-01 0.381D-01
 Coeff:      0.128D+00 0.180D+00 0.643D+00
 Gap=     0.181 Goal=   None    Shift=    0.000
 RMSDP=1.16D-05 MaxDP=1.20D-03 DE=-1.11D-05 OVMax= 9.94D-05

 Cycle  10  Pass 1  IDiag  1:
 RMSU=  6.56D-06    CP:  8.76D-01  4.76D-01  9.07D-01  4.39D-01  7.46D-01
                    CP:  5.90D-01  7.42D-01  5.54D-01  7.49D-01
 E= -3742.16250811476     Delta-E=       -0.000000158262 Rises=F Damp=F
 DIIS: error= 6.53D-06 at cycle  10 NSaved=  10.
 NSaved=10 IEnMin=10 EnMin= -3742.16250811476     IErMin=10 ErrMin= 6.53D-06
 ErrMax= 6.53D-06  0.00D+00 EMaxC= 1.00D-01 BMatC= 3.73D-08 BMatP= 1.90D-07
 IDIUse=1 WtCom= 1.00D+00 WtEn= 0.00D+00
 Coeff-Com:  0.655D-04-0.156D-03-0.243D-03-0.447D-03 0.213D-02 0.761D-02
 Coeff-Com:  0.312D-01 0.573D-01 0.363D+00 0.539D+00
 Coeff:      0.655D-04-0.156D-03-0.243D-03-0.447D-03 0.213D-02 0.761D-02
 Coeff:      0.312D-01 0.573D-01 0.363D+00 0.539D+00
 Gap=     0.181 Goal=   None    Shift=    0.000
 RMSDP=4.57D-06 MaxDP=5.63D-04 DE=-1.58D-07 OVMax= 3.35D-05

 Cycle  11  Pass 1  IDiag  1:
 RMSU=  1.52D-06    CP:  8.76D-01  4.76D-01  9.07D-01  4.38D-01  7.46D-01
                    CP:  5.89D-01  7.47D-01  5.70D-01  7.84D-01  7.72D-01
 E= -3742.16250814510     Delta-E=       -0.000000030333 Rises=F Damp=F
 DIIS: error= 1.25D-06 at cycle  11 NSaved=  11.
 NSaved=11 IEnMin=11 EnMin= -3742.16250814510     IErMin=11 ErrMin= 1.25D-06
 ErrMax= 1.25D-06  0.00D+00 EMaxC= 1.00D-01 BMatC= 1.34D-09 BMatP= 3.73D-08
 IDIUse=1 WtCom= 1.00D+00 WtEn= 0.00D+00
 Coeff-Com:  0.100D-04-0.259D-04-0.475D-04-0.138D-03-0.171D-03 0.266D-03
 Coeff-Com:  0.339D-02 0.107D-01 0.113D+00 0.215D+00 0.658D+00
 Coeff:      0.100D-04-0.259D-04-0.475D-04-0.138D-03-0.171D-03 0.266D-03
 Coeff:      0.339D-02 0.107D-01 0.113D+00 0.215D+00 0.658D+00
 Gap=     0.181 Goal=   None    Shift=    0.000
 RMSDP=1.09D-06 MaxDP=1.30D-04 DE=-3.03D-08 OVMax= 1.20D-05

 Cycle  12  Pass 1  IDiag  1:
 RMSU=  7.24D-07    CP:  8.76D-01  4.76D-01  9.07D-01  4.38D-01  7.46D-01
                    CP:  5.88D-01  7.47D-01  5.72D-01  8.00D-01  7.89D-01
                    CP:  8.26D-01
 E= -3742.16250814600     Delta-E=       -0.000000000900 Rises=F Damp=F
 DIIS: error= 7.64D-07 at cycle  12 NSaved=  12.
 NSaved=12 IEnMin=12 EnMin= -3742.16250814600     IErMin=12 ErrMin= 7.64D-07
 ErrMax= 7.64D-07  0.00D+00 EMaxC= 1.00D-01 BMatC= 4.18D-10 BMatP= 1.34D-09
 IDIUse=1 WtCom= 1.00D+00 WtEn= 0.00D+00
 Coeff-Com: -0.146D-05 0.261D-05-0.896D-05-0.247D-04-0.303D-03-0.628D-03
 Coeff-Com: -0.153D-02-0.647D-03 0.205D-01 0.496D-01 0.386D+00 0.547D+00
 Coeff:     -0.146D-05 0.261D-05-0.896D-05-0.247D-04-0.303D-03-0.628D-03
 Coeff:     -0.153D-02-0.647D-03 0.205D-01 0.496D-01 0.386D+00 0.547D+00
 Gap=     0.181 Goal=   None    Shift=    0.000
 RMSDP=2.98D-07 MaxDP=2.59D-05 DE=-9.00D-10 OVMax= 5.04D-06

 Cycle  13  Pass 1  IDiag  1:
 RMSU=  1.61D-07    CP:  8.76D-01  4.76D-01  9.07D-01  4.38D-01  7.46D-01
                    CP:  5.88D-01  7.47D-01  5.72D-01  8.02D-01  7.92D-01
                    CP:  8.55D-01  7.62D-01
 E= -3742.16250814682     Delta-E=       -0.000000000821 Rises=F Damp=F
 DIIS: error= 1.96D-07 at cycle  13 NSaved=  13.
 NSaved=13 IEnMin=13 EnMin= -3742.16250814682     IErMin=13 ErrMin= 1.96D-07
 ErrMax= 1.96D-07  0.00D+00 EMaxC= 1.00D-01 BMatC= 2.98D-11 BMatP= 4.18D-10
 IDIUse=1 WtCom= 1.00D+00 WtEn= 0.00D+00
 Coeff-Com: -0.161D-05 0.354D-05-0.249D-05-0.146D-05-0.155D-03-0.370D-03
 Coeff-Com: -0.111D-02-0.128D-02 0.144D-02 0.831D-02 0.151D+00 0.281D+00
 Coeff-Com:  0.561D+00
 Coeff:     -0.161D-05 0.354D-05-0.249D-05-0.146D-05-0.155D-03-0.370D-03
 Coeff:     -0.111D-02-0.128D-02 0.144D-02 0.831D-02 0.151D+00 0.281D+00
 Coeff:      0.561D+00
 Gap=     0.181 Goal=   None    Shift=    0.000
 RMSDP=1.88D-07 MaxDP=2.47D-05 DE=-8.21D-10 OVMax= 1.84D-06

 Cycle  14  Pass 1  IDiag  1:
 RMSU=  9.36D-08    CP:  8.76D-01  4.76D-01  9.07D-01  4.38D-01  7.46D-01
                    CP:  5.88D-01  7.47D-01  5.72D-01  8.01D-01  7.91D-01
                    CP:  8.50D-01  7.02D-01  8.30D-01
 E= -3742.16250814669     Delta-E=        0.000000000128 Rises=F Damp=F
 DIIS: error= 4.96D-08 at cycle  14 NSaved=  14.
 NSaved=14 IEnMin=13 EnMin= -3742.16250814682     IErMin=14 ErrMin= 4.96D-08
 ErrMax= 4.96D-08  0.00D+00 EMaxC= 1.00D-01 BMatC= 4.58D-12 BMatP= 2.98D-11
 IDIUse=1 WtCom= 1.00D+00 WtEn= 0.00D+00
 Coeff-Com: -0.788D-06 0.174D-05-0.380D-06 0.242D-05-0.542D-04-0.139D-03
 Coeff-Com: -0.452D-03-0.681D-03-0.204D-02-0.154D-02 0.377D-01 0.900D-01
 Coeff-Com:  0.329D+00 0.548D+00
 Coeff:     -0.788D-06 0.174D-05-0.380D-06 0.242D-05-0.542D-04-0.139D-03
 Coeff:     -0.452D-03-0.681D-03-0.204D-02-0.154D-02 0.377D-01 0.900D-01
 Coeff:      0.329D+00 0.548D+00
 Gap=     0.181 Goal=   None    Shift=    0.000
 RMSDP=4.48D-08 MaxDP=3.07D-06 DE= 1.28D-10 OVMax= 5.11D-07

 Cycle  15  Pass 1  IDiag  1:
 RMSU=  2.14D-08    CP:  8.76D-01  4.76D-01  9.07D-01  4.38D-01  7.46D-01
                    CP:  5.88D-01  7.47D-01  5.72D-01  8.01D-01  7.93D-01
                    CP:  8.59D-01  7.21D-01  7.79D-01  7.30D-01
 E= -3742.16250814685     Delta-E=       -0.000000000159 Rises=F Damp=F
 DIIS: error= 2.95D-08 at cycle  15 NSaved=  15.
 NSaved=15 IEnMin=15 EnMin= -3742.16250814685     IErMin=15 ErrMin= 2.95D-08
 ErrMax= 2.95D-08  0.00D+00 EMaxC= 1.00D-01 BMatC= 5.85D-13 BMatP= 4.58D-12
 IDIUse=1 WtCom= 1.00D+00 WtEn= 0.00D+00
 Coeff-Com: -0.367D-06 0.811D-06 0.213D-06 0.133D-05-0.206D-04-0.553D-04
 Coeff-Com: -0.180D-03-0.288D-03-0.114D-02-0.121D-02 0.109D-01 0.313D-01
 Coeff-Com:  0.148D+00 0.323D+00 0.490D+00
 Coeff:     -0.367D-06 0.811D-06 0.213D-06 0.133D-05-0.206D-04-0.553D-04
 Coeff:     -0.180D-03-0.288D-03-0.114D-02-0.121D-02 0.109D-01 0.313D-01
 Coeff:      0.148D+00 0.323D+00 0.490D+00
 Gap=     0.181 Goal=   None    Shift=    0.000
 RMSDP=1.11D-08 MaxDP=1.37D-06 DE=-1.59D-10 OVMax= 2.92D-07

 Cycle  16  Pass 1  IDiag  1:
 RMSU=  6.62D-09    CP:  8.76D-01  4.76D-01  9.07D-01  4.38D-01  7.46D-01
                    CP:  5.88D-01  7.47D-01  5.72D-01  8.01D-01  7.93D-01
                    CP:  8.59D-01  7.23D-01  8.05D-01  7.58D-01  8.42D-01
 E= -3742.16250814690     Delta-E=       -0.000000000054 Rises=F Damp=F
 DIIS: error= 7.75D-09 at cycle  16 NSaved=  16.
 NSaved=16 IEnMin=16 EnMin= -3742.16250814690     IErMin=16 ErrMin= 7.75D-09
 ErrMax= 7.75D-09  0.00D+00 EMaxC= 1.00D-01 BMatC= 9.03D-14 BMatP= 5.85D-13
 IDIUse=1 WtCom= 1.00D+00 WtEn= 0.00D+00
 Coeff-Com: -0.474D-07 0.109D-06 0.216D-06 0.245D-06 0.129D-06-0.221D-05
 Coeff-Com: -0.108D-04-0.341D-04-0.367D-03-0.633D-03-0.238D-02-0.860D-03
 Coeff-Com:  0.210D-01 0.847D-01 0.294D+00 0.604D+00
 Coeff:     -0.474D-07 0.109D-06 0.216D-06 0.245D-06 0.129D-06-0.221D-05
 Coeff:     -0.108D-04-0.341D-04-0.367D-03-0.633D-03-0.238D-02-0.860D-03
 Coeff:      0.210D-01 0.847D-01 0.294D+00 0.604D+00
 Gap=     0.181 Goal=   None    Shift=    0.000
 RMSDP=8.87D-09 MaxDP=1.16D-06 DE=-5.37D-11 OVMax= 1.13D-07

 Cycle  17  Pass 1  IDiag  1:
 RMSU=  2.74D-09    CP:  8.76D-01  4.76D-01  9.07D-01  4.38D-01  7.46D-01
                    CP:  5.88D-01  7.47D-01  5.72D-01  8.01D-01  7.93D-01
                    CP:  8.58D-01  7.24D-01  8.18D-01  7.56D-01  7.98D-01
                    CP:  7.78D-01
 E= -3742.16250814631     Delta-E=        0.000000000597 Rises=F Damp=F
 DIIS: error= 3.11D-09 at cycle  17 NSaved=  17.
 NSaved=17 IEnMin=16 EnMin= -3742.16250814690     IErMin=17 ErrMin= 3.11D-09
 ErrMax= 3.11D-09  0.00D+00 EMaxC= 1.00D-01 BMatC= 6.59D-15 BMatP= 9.03D-14
 IDIUse=1 WtCom= 1.00D+00 WtEn= 0.00D+00
 Coeff-Com:  0.558D-08-0.587D-08 0.117D-06 0.230D-07 0.144D-05 0.229D-05
 Coeff-Com:  0.526D-05 0.843D-06-0.104D-03-0.222D-03-0.195D-02-0.240D-02
 Coeff-Com:  0.130D-02 0.227D-01 0.113D+00 0.316D+00 0.552D+00
 Coeff:      0.558D-08-0.587D-08 0.117D-06 0.230D-07 0.144D-05 0.229D-05
 Coeff:      0.526D-05 0.843D-06-0.104D-03-0.222D-03-0.195D-02-0.240D-02
 Coeff:      0.130D-02 0.227D-01 0.113D+00 0.316D+00 0.552D+00
 Gap=     0.181 Goal=   None    Shift=    0.000
 RMSDP=2.16D-09 MaxDP=2.38D-07 DE= 5.97D-10 OVMax= 1.90D-08

 SCF Done:  E(RB3LYP) =  -3742.16250815     A.U. after   17 cycles
            NFock= 17  Conv=0.22D-08     -V/T= 2.0019
 KE= 3.735233091029D+03 PE=-1.461358505009D+04 EE= 4.265594379786D+03
 Leave Link  502 at Mon Jul 08 16:50:55 2019, MaxMem=   209715200 cpu:      2787.0
 (Enter C:\G09W\l601.exe)
 Copying SCF densities to generalized density rwf, IOpCl= 0 IROHF=0.

 **********************************************************************

            Population analysis using the SCF density.

 **********************************************************************

 Orbital symmetries:
       Occupied  (A) (A) (A) (A) (A) (A) (A) (A) (A) (A) (A) (A)
                 (A) (A) (A) (A) (A) (A) (A) (A) (A) (A) (A) (A)
                 (A) (A) (A) (A) (A) (A) (A) (A) (A) (A) (A) (A)
                 (A) (A) (A) (A) (A) (A) (A) (A) (A) (A) (A) (A)
                 (A) (A) (A) (A) (A) (A) (A) (A) (A) (A) (A) (A)
                 (A) (A) (A) (A) (A) (A) (A) (A) (A) (A) (A) (A)
                 (A) (A) (A) (A) (A) (A) (A) (A) (A) (A) (A) (A)
                 (A) (A) (A) (A) (A) (A) (A) (A) (A) (A) (A) (A)
                 (A) (A) (A) (A) (A) (A) (A) (A) (A) (A) (A) (A)
                 (A) (A) (A)
       Virtual   (A) (A) (A) (A) (A) (A) (A) (A) (A) (A) (A) (A)
                 (A) (A) (A) (A) (A) (A) (A) (A) (A) (A) (A) (A)
                 (A) (A) (A) (A) (A) (A) (A) (A) (A) (A) (A) (A)
                 (A) (A) (A) (A) (A) (A) (A) (A) (A) (A) (A) (A)
                 (A) (A) (A) (A) (A) (A) (A) (A) (A) (A) (A) (A)
                 (A) (A) (A) (A) (A) (A) (A) (A) (A) (A) (A) (A)
                 (A) (A) (A) (A) (A) (A) (A) (A) (A) (A) (A) (A)
                 (A) (A) (A) (A) (A) (A) (A) (A) (A) (A) (A) (A)
                 (A) (A) (A) (A) (A) (A) (A) (A) (A) (A) (A) (A)
                 (A) (A) (A) (A) (A) (A) (A) (A) (A) (A) (A) (A)
                 (A) (A) (A) (A) (A) (A) (A) (A) (A) (A) (A) (A)
                 (A) (A) (A) (A) (A) (A) (A) (A) (A) (A) (A) (A)
                 (A) (A) (A) (A) (A) (A) (A) (A) (A) (A) (A) (A)
                 (A) (A) (A) (A) (A) (A) (A) (A) (A) (A) (A) (A)
                 (A) (A) (A) (A) (A) (A) (A) (A) (A) (A) (A) (A)
                 (A) (A) (A) (A) (A) (A) (A) (A) (A) (A) (A) (A)
                 (A) (A) (A) (A) (A) (A) (A) (A) (A) (A) (A) (A)
                 (A) (A) (A) (A) (A) (A) (A) (A) (A) (A) (A) (A)
                 (A) (A) (A) (A) (A) (A) (A) (A) (A) (A) (A) (A)
                 (A) (A) (A) (A) (A) (A) (A) (A) (A) (A) (A) (A)
                 (A) (A) (A) (A) (A) (A) (A) (A) (A) (A) (A) (A)
                 (A) (A) (A) (A) (A) (A) (A) (A) (A) (A) (A) (A)
                 (A) (A) (A) (A) (A) (A) (A) (A) (A) (A) (A) (A)
                 (A) (A) (A) (A) (A) (A) (A) (A) (A) (A) (A) (A)
                 (A) (A) (A) (A) (A) (A) (A) (A) (A) (A) (A) (A)
                 (A) (A) (A) (A) (A) (A) (A) (A) (A) (A) (A) (A)
                 (A) (A) (A) (A) (A) (A) (A) (A) (A) (A) (A) (A)
                 (A) (A) (A) (A) (A) (A) (A) (A) (A) (A) (A) (A)
                 (A) (A) (A) (A) (A) (A) (A) (A) (A) (A) (A) (A)
                 (A) (A) (A) (A) (A) (A) (A) (A) (A) (A) (A) (A)
                 (A) (A) (A) (A) (A) (A) (A) (A) (A) (A) (A) (A)
                 (A) (A) (A) (A) (A) (A) (A) (A) (A) (A) (A) (A)
                 (A) (A) (A) (A) (A) (A) (A) (A) (A) (A) (A) (A)
                 (A) (A) (A) (A) (A) (A) (A) (A) (A) (A) (A) (A)
                 (A) (A) (A) (A) (A) (A) (A) (A) (A) (A) (A) (A)
                 (A) (A) (A) (A) (A) (A) (A) (A) (A) (A) (A) (A)
                 (A) (A) (A) (A) (A) (A) (A) (A) (A) (A) (A) (A)
                 (A) (A) (A) (A) (A) (A) (A) (A) (A) (A) (A) (A)
                 (A) (A) (A) (A) (A) (A) (A) (A) (A) (A) (A) (A)
                 (A) (A) (A) (A) (A) (A) (A) (A) (A) (A) (A) (A)
                 (A) (A) (A) (A) (A) (A) (A) (A) (A) (A) (A) (A)
                 (A) (A) (A) (A) (A) (A) (A) (A) (A) (A) (A) (A)
                 (A) (A) (A) (A) (A) (A) (A) (A) (A) (A) (A) (A)
                 (A) (A) (A) (A) (A) (A) (A) (A) (A) (A) (A) (A)
                 (A) (A) (A) (A) (A) (A) (A) (A) (A) (A) (A) (A)
                 (A) (A) (A) (A) (A) (A) (A) (A) (A) (A) (A) (A)
                 (A) (A) (A) (A) (A) (A) (A) (A) (A) (A) (A) (A)
                 (A) (A) (A) (A) (A) (A) (A) (A) (A) (A) (A) (A)
                 (A) (A) (A) (A) (A) (A) (A) (A) (A) (A) (A) (A)
                 (A) (A) (A) (A) (A) (A) (A) (A) (A) (A) (A) (A)
[...]
   523. RY*(  10) C  24                  0.00006     1.39117   
   524. RY*(  11) C  24                  0.00003     2.08559   
   525. RY*(  12) C  24                  0.00002     1.77147   
   526. RY*(  13) C  24                  0.00001     2.43389   
   527. RY*(  14) C  24                  0.00001     1.89800   
   528. RY*(  15) C  24                  0.00000    20.21681   
   529. RY*(  16) C  24                  0.00000     2.86396   
   530. RY*(  17) C  24                  0.00001     1.40229   
   531. RY*(   1) C  25                  0.00587     1.05654   
   532. RY*(   2) C  25                  0.00213     1.30312   
   533. RY*(   3) C  25                  0.00082     0.49298   
   534. RY*(   4) C  25                  0.00061     1.65520   
   535. RY*(   5) C  25                  0.00044     0.97413   
   536. RY*(   6) C  25                  0.00017     1.50292   
   537. RY*(   7) C  25                  0.00011     3.06442   
   538. RY*(   8) C  25                  0.00005     2.79933   
   539. RY*(   9) C  25                  0.00006     1.58614   
   540. RY*(  10) C  25                  0.00002     3.17312   
   541. RY*(  11) C  25                  0.00001     0.68718   
   542. RY*(  12) C  25                  0.00000     1.96440   
   543. RY*(  13) C  25                  0.00001     0.89131   
   544. RY*(  14) C  25                  0.00000     2.67049   
   545. RY*(  15) C  25                  0.00000     1.93248   
   546. RY*(  16) C  25                  0.00000    20.01103   
   547. RY*(  17) C  25                  0.00000     1.63709   
   548. RY*(   1) C  26                  0.00602     1.10402   
   549. RY*(   2) C  26                  0.00214     1.27286   
   550. RY*(   3) C  26                  0.00099     0.46436   
   551. RY*(   4) C  26                  0.00055     1.65466   
   552. RY*(   5) C  26                  0.00037     0.83946   
   553. RY*(   6) C  26                  0.00035     0.86996   
   554. RY*(   7) C  26                  0.00011     2.97988   
   555. RY*(   8) C  26                  0.00007     2.95000   
   556. RY*(   9) C  26                  0.00004     2.91520   
   557. RY*(  10) C  26                  0.00001     1.27531   
   558. RY*(  11) C  26                  0.00000     3.00405   
   559. RY*(  12) C  26                  0.00001     2.02557   
   560. RY*(  13) C  26                  0.00000     1.55513   
   561. RY*(  14) C  26                  0.00000     0.38138   
   562. RY*(  15) C  26                  0.00000     2.44627   
   563. RY*(  16) C  26                  0.00001     2.74945   
   564. RY*(  17) C  26                  0.00000    18.89870   
   565. RY*(   1) C  27                  0.00587     1.05640   
   566. RY*(   2) C  27                  0.00212     1.30309   
   567. RY*(   3) C  27                  0.00083     0.54568   
   568. RY*(   4) C  27                  0.00061     1.59165   
   569. RY*(   5) C  27                  0.00044     0.97392   
   570. RY*(   6) C  27                  0.00017     1.48859   
   571. RY*(   7) C  27                  0.00011     3.15057   
   572. RY*(   8) C  27                  0.00005     2.84594   
   573. RY*(   9) C  27                  0.00006     1.67120   
   574. RY*(  10) C  27                  0.00001     1.48849   
   575. RY*(  11) C  27                  0.00001     0.58179   
   576. RY*(  12) C  27                  0.00001     2.58788   
   577. RY*(  13) C  27                  0.00000    21.64103   
   578. RY*(  14) C  27                  0.00001     0.46890   
   579. RY*(  15) C  27                  0.00001     1.86050   
   580. RY*(  16) C  27                  0.00000     2.62101   
   581. RY*(  17) C  27                  0.00001     1.58293   
   582. RY*(   1) C  28                  0.00547     1.29778   
   583. RY*(   2) C  28                  0.00202     1.07847   
   584. RY*(   3) C  28                  0.00091     0.82534   
   585. RY*(   4) C  28                  0.00080     0.83142   
   586. RY*(   5) C  28                  0.00059     1.51401   
   587. RY*(   6) C  28                  0.00027     1.54972   
   588. RY*(   7) C  28                  0.00015     2.34384   
   589. RY*(   8) C  28                  0.00009     3.35026   
   590. RY*(   9) C  28                  0.00007     1.68574   
   591. RY*(  10) C  28                  0.00006     1.86010   
   592. RY*(  11) C  28                  0.00004     1.53583   
   593. RY*(  12) C  28                  0.00001     1.81510   
   594. RY*(  13) C  28                  0.00002     1.50450   
   595. RY*(  14) C  28                  0.00001     2.35706   
   596. RY*(  15) C  28                  0.00000    20.55082   
   597. RY*(  16) C  28                  0.00000     3.05904   
   598. RY*(  17) C  28                  0.00000     2.96446   
   599. RY*(   1) H  29                  0.00129     0.97532   
   600. RY*(   2) H  29                  0.00027     1.77121   
   601. RY*(   3) H  29                  0.00019     2.10501   
   602. RY*(   4) H  29                  0.00013     2.05571   
   603. RY*(   5) H  29                  0.00008     1.78327   
   604. RY*(   6) H  29                  0.00006     1.34146   
   605. RY*(   1) H  30                  0.00225     0.57453   
   606. RY*(   2) H  30                  0.00024     1.94248   
   607. RY*(   3) H  30                  0.00020     1.83689   
   608. RY*(   4) H  30                  0.00016     1.48809   
   609. RY*(   5) H  30                  0.00012     2.23295   
   610. RY*(   6) H  30                  0.00010     1.91821   
   611. RY*(   1) H  31                  0.00132     0.53079   
   612. RY*(   2) H  31                  0.00035     1.52699   
   613. RY*(   3) H  31                  0.00025     2.11494   
   614. RY*(   4) H  31                  0.00011     1.99063   
   615. RY*(   5) H  31                  0.00007     0.75265   
   616. RY*(   6) H  31                  0.00004     2.63001   
   617. RY*(   1) H  32                  0.00085     0.92380   
   618. RY*(   2) H  32                  0.00021     1.72099   
   619. RY*(   3) H  32                  0.00017     1.91621   
   620. RY*(   4) H  32                  0.00011     1.99447   
   621. RY*(   5) H  32                  0.00005     0.27832   
   622. RY*(   6) H  32                  0.00004     2.51538   
   623. RY*(   1) H  33                  0.00075     0.66190   
   624. RY*(   2) H  33                  0.00021     2.33473   
   625. RY*(   3) H  33                  0.00019     1.58050   
   626. RY*(   4) H  33                  0.00011     1.95632   
   627. RY*(   5) H  33                  0.00003     2.54860   
   628. RY*(   6) H  33                  0.00003     0.16655   
   629. RY*(   1) H  34                  0.00073     0.69611   
   630. RY*(   2) H  34                  0.00020     2.30797   
   631. RY*(   3) H  34                  0.00020     1.62628   
   632. RY*(   4) H  34                  0.00011     1.94837   
   633. RY*(   5) H  34                  0.00003     2.45799   
   634. RY*(   6) H  34                  0.00003     0.17692   
   635. RY*(   1) H  35                  0.00074     0.76507   
   636. RY*(   2) H  35                  0.00020     2.46347   
   637. RY*(   3) H  35                  0.00020     2.06527   
   638. RY*(   4) H  35                  0.00012     2.10244   
   639. RY*(   5) H  35                  0.00004     0.27944   
   640. RY*(   6) H  35                  0.00004     2.54626   
   641. RY*(   1) H  36                  0.00164     0.84601   
   642. RY*(   2) H  36                  0.00067     1.64358   
   643. RY*(   3) H  36                  0.00039     1.85883   
   644. RY*(   4) H  36                  0.00020     2.02439   
   645. RY*(   5) H  36                  0.00008     1.65951   
   646. RY*(   6) H  36                  0.00005     1.59949   
   647. RY*(   1) H  37                  0.00177     1.65108   
   648. RY*(   2) H  37                  0.00126     1.82836   
   649. RY*(   3) H  37                  0.00070     1.65851   
   650. RY*(   4) H  37                  0.00025     1.34986   
   651. RY*(   5) H  37                  0.00011     0.39735   
   652. RY*(   6) H  37                  0.00001     2.46262   
   653. RY*(   1) H  38                  0.00076     1.12436   
   654. RY*(   2) H  38                  0.00022     1.85370   
   655. RY*(   3) H  38                  0.00019     1.65247   
   656. RY*(   4) H  38                  0.00013     2.01205   
   657. RY*(   5) H  38                  0.00004     2.46040   
   658. RY*(   1) H  39                  0.00150     0.46228   
   659. RY*(   2) H  39                  0.00031     2.37054   
   660. RY*(   3) H  39                  0.00018     1.66478   
   661. RY*(   4) H  39                  0.00013     1.75226   
   662. RY*(   5) H  39                  0.00007     0.85112   
   663. RY*(   6) H  39                  0.00004     2.29611   
   664. RY*(   1) H  40                  0.00189     0.58281   
   665. RY*(   2) H  40                  0.00033     2.33320   
   666. RY*(   3) H  40                  0.00018     1.64090   
   667. RY*(   4) H  40                  0.00012     2.02772   
   668. RY*(   5) H  40                  0.00004     2.62046   
   669. RY*(   6) H  40                  0.00004     0.34381   
   670. RY*(   1) H  41                  0.00098     1.37970   
   671. RY*(   2) H  41                  0.00024     1.58187   
   672. RY*(   3) H  41                  0.00019     1.42004   
   673. RY*(   4) H  41                  0.00013     1.93625   
   674. RY*(   5) H  41                  0.00005     2.53289   
   675. RY*(   6) H  41                  0.00006     0.71165   
   676. RY*(   1) H  42                  0.00136     0.46714   
   677. RY*(   2) H  42                  0.00031     2.40202   
   678. RY*(   3) H  42                  0.00019     1.63355   
   679. RY*(   4) H  42                  0.00013     1.99344   
   680. RY*(   5) H  42                  0.00005     0.27340   
   681. RY*(   6) H  42                  0.00004     2.63829   
   682. RY*(   1) H  43                  0.00084     0.65424   
   683. RY*(   2) H  43                  0.00020     2.32571   
   684. RY*(   3) H  43                  0.00019     1.60405   
   685. RY*(   4) H  43                  0.00011     1.96754   
   686. RY*(   5) H  43                  0.00004     2.46031   
   687. RY*(   6) H  43                  0.00002     0.21471   
   688. RY*(   1) H  44                  0.00076     0.67411   
   689. RY*(   2) H  44                  0.00020     1.59259   
   690. RY*(   3) H  44                  0.00019     2.34978   
   691. RY*(   4) H  44                  0.00011     1.97041   
   692. RY*(   5) H  44                  0.00003     2.45917   
   693. RY*(   6) H  44                  0.00001     0.18146   
   694. RY*(   1) H  45                  0.00083     0.65561   
   695. RY*(   2) H  45                  0.00020     2.32067   
   696. RY*(   3) H  45                  0.00019     1.60667   
   697. RY*(   4) H  45                  0.00011     1.97592   
   698. RY*(   5) H  45                  0.00004     2.48993   
   699. RY*(   6) H  45                  0.00002     0.19693   
   700. RY*(   1) H  46                  0.00139     0.44815   
   701. RY*(   2) H  46                  0.00033     2.36151   
   702. RY*(   3) H  46                  0.00019     0.23678   
   703. RY*(   4) H  46                  0.00013     0.47508   
   704. RY*(   5) H  46                  0.00006     0.36391   
   705. RY*(   6) H  46                  0.00004     1.23068   
   706. BD*(   1) C   1 - C   2          0.02654     0.53921   
   707. BD*(   2) C   1 - C   2          0.39309    -0.00152  713(v),718(v),724(r),114(g)
                                                    133(g),722(v),148(v),721(v)
                                                    132(g),199(v)
   708. BD*(   1) C   1 - C   6          0.01466     0.55603   
   709. BD*(   1) C   1 - H  31          0.01342     0.41636   
   710. BD*(   1) C   2 - C   3          0.02417     0.53838   
   711. BD*(   1) C   2 - N   7          0.02995     0.38221   
   712. BD*(   1) C   3 - C   4          0.01430     0.55793   
   713. BD*(   2) C   3 - C   4          0.32582     0.00670  718(v),707(v),165(g),148(g)
   714. BD*(   1) C   3 - H  32          0.01287     0.41419   
   715. BD*(   1) C   4 - C   5          0.01592     0.55707   
   716. BD*(   1) C   4 - H  33          0.01310     0.42603   
   717. BD*(   1) C   5 - C   6          0.01580     0.55833   
   718. BD*(   2) C   5 - C   6          0.33053     0.00925  713(v),707(v),182(g),199(g)
   719. BD*(   1) C   5 - H  34          0.01334     0.42837   
   720. BD*(   1) C   6 - H  35          0.01314     0.42536   
   721. BD*(   1) N   7 - C   8          0.02806     0.45670   
   722. BD*(   1) N   7 - H  36          0.02371     0.36208   
   723. BD*(   1) C   8 - C   9          0.02485     0.58955   
   724. BD*(   2) C   8 - C   9          0.30263    -0.00049  733(v),707(r),250(g),729(v)
                                                    730(v),234(g)
   725. BD*(   1) C   8 - C  10          0.03767     0.35642   
   726. BD*(   1) C   9 - C  11          0.07654     0.43838   
   727. BD*(   1) C   9 -Br  13          0.03132     0.08850   
   728. BD*(   1) C  10 - O  12          0.02820     0.24808   
   729. BD*(   1) C  10 - C  15          0.05292     0.32170   
   730. BD*(   1) C  10 - H  29          0.02680     0.37602   
   731. BD*(   1) C  11 - O  12          0.12290     0.30653  728(g),725(v),283(g),729(v)
                                                    723(v),727(v),289(g),310(g)
   732. BD*(   1) C  11 - O  14          0.01308     0.63441   
   733. BD*(   2) C  11 - O  14          0.28521     0.01230  724(v),284(g),347(g),360(g)
   734. BD*(   1) C  15 - C  16          0.03617     0.39702   
   735. BD*(   1) C  15 - O  17          0.03142     0.27231   
   736. BD*(   1) C  15 - H  30          0.02361     0.37811   
   737. BD*(   1) C  16 - C  18          0.02255     0.56776   
   738. BD*(   2) C  16 - C  18          0.35875     0.02600  749(v),744(v),735(v),416(g)
                                                    729(v),483(v)
   739. BD*(   1) C  16 - C  22          0.02582     0.56556   
   740. BD*(   1) O  17 - H  37          0.00942     0.42150   
   741. BD*(   1) C  18 - C  19          0.01408     0.57585   
   742. BD*(   1) C  18 - H  38          0.01454     0.42907   
   743. BD*(   1) C  19 - C  20          0.02447     0.56050   
   744. BD*(   2) C  19 - C  20          0.35558     0.02834  749(v),738(v),754(v),433(g)
                                                    752(v),467(v)
   745. BD*(   1) C  19 - H  39          0.01395     0.43460   
   746. BD*(   1) C  20 - C  21          0.02496     0.54253   
   747. BD*(   1) C  20 - C  23          0.03163     0.45371   
   748. BD*(   1) C  21 - C  22          0.01542     0.56621   
   749. BD*(   2) C  21 - C  22          0.30886     0.02645  738(v),744(v),467(g),483(g)
                                                    484(g)
   750. BD*(   1) C  21 - H  40          0.01414     0.43830   
   751. BD*(   1) C  22 - H  41          0.01496     0.45153   
   752. BD*(   1) C  23 - C  24          0.02504     0.55290   
   753. BD*(   1) C  23 - C  28          0.02498     0.55130   
   754. BD*(   2) C  23 - C  28          0.36197     0.03095  756(v),761(v),744(v),584(g)
                                                    702(v),746(v),764(v)
   755. BD*(   1) C  24 - C  25          0.01512     0.57772   
   756. BD*(   2) C  24 - C  25          0.32373     0.03449  754(v),761(v),533(g),517(g)
                                                    763(r),766(r)
   757. BD*(   1) C  24 - H  42          0.01405     0.44118   
   758. BD*(   1) C  25 - C  26          0.01635     0.57867   
   759. BD*(   1) C  25 - H  43          0.01357     0.44007   
   760. BD*(   1) C  26 - C  27          0.01634     0.57394   
   761. BD*(   2) C  26 - C  27          0.33542     0.02653  754(v),756(v),550(g),567(g)
                                                    561(g)
   762. BD*(   1) C  26 - H  44          0.01364     0.45077   
   763. BD*(   1) C  27 - C  28          0.01511     3.70249   
   764. BD*(   1) C  27 - H  45          0.01356     2.69218   
   765. BD*(   1) C  28 - H  46          0.01404     3.10482   
       -------------------------------
              Total Lewis  216.72738  ( 97.6249%)
        Valence non-Lewis    4.85379  (  2.1864%)
        Rydberg non-Lewis    0.41883  (  0.1887%)
       -------------------------------
            Total unit  1  222.00000  (100.0000%)
           Charge unit  1    0.00000
 Leave Link  607 at Tue Jul 09 03:18:23 2019, MaxMem=   209715200 cpu:        37.0
 (Enter C:\G09W\l9999.exe)
 1|1|UNPC-CCSC-01038015|FOpt|RB3LYP|6-311++G(d,p)|C23H18Br1N1O3|PERFIL|
 09-Jul-2019|0||#p opt b3lyp/6-311++g(d,p) pop=nbo geom=connectivity||9
 s.log||0,1|C,1.8186491133,2.604540806,-1.3039192357|C,2.5720776262,2.3
 558262708,-0.1523374362|C,2.782994093,3.3871796558,0.77010805|C,2.2363
 230308,4.6468645542,0.5461613111|C,1.4600510642,4.8877303236,-0.587013
 5692|C,1.254058333,3.8617203045,-1.507029962|N,3.1769801252,1.09620558
 13,0.0873444131|C,2.6678909117,-0.1439496377,-0.1243803181|C,3.3459611
 881,-1.3151385648,-0.0899431996|C,1.1986463703,-0.4680691056,-0.324643
 6056|C,2.4386385081,-2.4381495692,-0.2781428119|O,1.1670938392,-1.8981
 952255,-0.4527254784|Br,5.1947315978,-1.5190507904,0.2068809158|O,2.62
 86721061,-3.620506941,-0.3041954751|C,0.3021110899,-0.0261696659,0.863
 525956|C,-1.1860117692,-0.1490263648,0.5789318555|O,0.6966517253,-0.69
 45752198,2.0561761455|C,-2.0183689707,0.9472793194,0.8228783373|C,-3.3
 92220533,0.8677044522,0.61827796|C,-3.985758242,-0.3180674049,0.164775
 0066|C,-3.1473612059,-1.415949184,-0.0780054529|C,-1.7730471777,-1.335
 9948358,0.1215656203|C,-5.4520033,-0.4092586669,-0.0517232347|C,-6.351
 0463125,0.2012383205,0.835620914|C,-7.7258872654,0.1152285738,0.633231
 8914|C,-8.2324479403,-0.5837877159,-0.4612139382|C,-7.3513156291,-1.19
 58050568,-1.3512149008|C,-5.9765707872,-1.109523259,-1.1484195844|H,0.
 8035073593,-0.0462165505,-1.250574497|H,0.5191948985,1.0273579688,1.04
 91350731|H,1.7002787587,1.8326817583,-2.0537871192|H,3.3639218645,3.19
 25047551,1.6649545802|H,2.4078597404,5.4380485711,1.2669621276|H,1.027
 4274349,5.866749654,-0.7551011515|H,0.6697976088,4.0429395327,-2.40191
 10535|H,4.1273588594,1.1128099553,0.435422005|H,0.4449338743,-1.623166
 0524,1.9842614572|H,-1.586912694,1.8792263874,1.1737994064|H,-4.007883
 6634,1.7426275794,0.7933739555|H,-3.5781685003,-2.3540064273,-0.409000
 8897|H,-1.1576068851,-2.2039504264,-0.0810017201|H,-5.9708699316,0.725
 6462522,1.7050712969|H,-8.402621701,0.5866364592,1.3373146455|H,-9.302
 8933648,-0.6514601841,-0.618577594|H,-7.7342113757,-1.7354608169,-2.21
 03033529|H,-5.301707872,-1.57066237,-1.8606623433||Version=IA32W-G09Re
 vD.01|State=1-A|HF=-3742.1693166|RMSD=4.665e-009|RMSF=3.575e-006|Dipol
 e=-0.7215371,2.6368933,-0.2669208|Quadrupole=6.1308184,-4.4874166,-1.6
 434018,12.9532114,3.1607613,2.0181624|PG=C01 [X(C23H18Br1N1O3)]||@


 SCIENCE IS LONG AND LIFE IS SHORT.

                     DON MOSER IN THE FEBRUARY 1979 SMITHSONIAN
 Job cpu time:       0 days 11 hours 14 minutes 55.0 seconds.
 File lengths (MBytes):  RWF=    346 Int=      0 D2E=      0 Chk=     39 Scr=      1
 Normal termination of Gaussian 09 at Tue Jul 09 03:18:24 2019.
