 Entering Link 1 = C:\G09W\l1.exe PID=     45584.
  
 Copyright (c) 1988,1990,1992,1993,1995,1998,2003,2009,2013,
            Gaussian, Inc.  All Rights Reserved.
  
 This is part of the Gaussian(R) 09 program.  It is based on
 the Gaussian(R) 03 system (copyright 2003, Gaussian, Inc.),
 the Gaussian(R) 98 system (copyright 1998, Gaussian, Inc.),
 the Gaussian(R) 94 system (copyright 1995, Gaussian, Inc.),
 the Gaussian 92(TM) system (copyright 1992, Gaussian, Inc.),
 the Gaussian 90(TM) system (copyright 1990, Gaussian, Inc.),
 the Gaussian 88(TM) system (copyright 1988, Gaussian, Inc.),
 the Gaussian 86(TM) system (copyright 1986, Carnegie Mellon
 University), and the Gaussian 82(TM) system (copyright 1983,
 Carnegie Mellon University). Gaussian is a federally registered
 trademark of Gaussian, Inc.
  
 This software contains proprietary and confidential information,
 including trade secrets, belonging to Gaussian, Inc.
  
 This software is provided under written license and may be
 used, copied, transmitted, or stored only in accord with that
 written license.
  
 The following legend is applicable only to US Government
 contracts under FAR:
  
                    RESTRICTED RIGHTS LEGEND
  
 Use, reproduction and disclosure by the US Government is
 subject to restrictions as set forth in subparagraphs (a)
 and (c) of the Commercial Computer Software - Restricted
 Rights clause in FAR 52.227-19.
  
 Gaussian, Inc.
 340 Quinnipiac St., Bldg. 40, Wallingford CT 06492
  
  
 ---------------------------------------------------------------
 Warning -- This program may not be used in any manner that
 competes with the business of Gaussian, Inc. or will provide
 assistance to any competitor of Gaussian, Inc.  The licensee
 of this program is prohibited from giving any competitor of
 Gaussian, Inc. access to this program.  By using this program,
 the user acknowledges that Gaussian, Inc. is engaged in the
 business of creating and licensing software in the field of
 computational chemistry and represents and warrants to the
 licensee that it is not a competitor of Gaussian, Inc. and that
 it will not use this program in any manner prohibited above.
 ---------------------------------------------------------------
  

 Cite this work as:
 Gaussian 09, Revision D.01,
 M. J. Frisch, G. W. Trucks, H. B. Schlegel, G. E. Scuseria, 
 M. A. Robb, J. R. Cheeseman, G. Scalmani, V. Barone, B. Mennucci, 
 G. A. Petersson, H. Nakatsuji, M. Caricato, X. Li, H. P. Hratchian, 
 A. F. Izmaylov, J. Bloino, G. Zheng, J. L. Sonnenberg, M. Hada, 
 M. Ehara, K. Toyota, R. Fukuda, J. Hasegawa, M. Ishida, T. Nakajima, 
 Y. Honda, O. Kitao, H. Nakai, T. Vreven, J. A. Montgomery, Jr., 
 J. E. Peralta, F. Ogliaro, M. Bearpark, J. J. Heyd, E. Brothers, 
 K. N. Kudin, V. N. Staroverov, T. Keith, R. Kobayashi, J. Normand, 
 K. Raghavachari, A. Rendell, J. C. Burant, S. S. Iyengar, J. Tomasi, 
 M. Cossi, N. Rega, J. M. Millam, M. Klene, J. E. Knox, J. B. Cross, 
 V. Bakken, C. Adamo, J. Jaramillo, R. Gomperts, R. E. Stratmann, 
 O. Yazyev, A. J. Austin, R. Cammi, C. Pomelli, J. W. Ochterski, 
 R. L. Martin, K. Morokuma, V. G. Zakrzewski, G. A. Voth, 
 P. Salvador, J. J. Dannenberg, S. Dapprich, A. D. Daniels, 
 O. Farkas, J. B. Foresman, J. V. Ortiz, J. Cioslowski, 
 and D. J. Fox, Gaussian, Inc., Wallingford CT, 2013.
 
 ******************************************
 Gaussian 09:  IA32W-G09RevD.01 24-Apr-2013
                09-Jul-2019 
 ******************************************
 %nprocshared=4
 Will use up to    4 processors via shared memory.
 %mem=1600MB
 ----------------------------------------------------
 #p opt b3lyp/6-311++g(d,p) pop=nbo geom=connectivity
 ----------------------------------------------------
 1/14=-1,18=20,19=15,26=3,38=1,57=2/1,3;
 2/9=110,12=2,17=6,18=5,40=1/2;
 3/5=4,6=6,7=1111,11=2,16=1,25=1,30=1,71=1,74=-5/1,2,3;
 4//1;
 5/5=2,38=5/2;
 6/7=2,8=2,9=2,10=2,28=1,40=1/1,7;
 7//1,2,3,16;
 1/14=-1,18=20,19=15,26=3/3(2);
 2/9=110/2;
 99//99;
 2/9=110/2;
 3/5=4,6=6,7=1111,11=2,16=1,25=1,30=1,71=1,74=-5/1,2,3;
 4/5=5,16=3,69=1/1;
 5/5=2,38=5/2;
 7//1,2,3,16;
 1/14=-1,18=20,19=15,26=3/3(-5);
 2/9=110/2;
 6/7=2,8=2,9=2,10=2,19=2,28=1,40=1/1,7;
 99/9=1/99;
 Leave Link    1 at Tue Jul 09 03:18:24 2019, MaxMem=   209715200 cpu:         0.0
 (Enter C:\G09W\l101.exe)
 ------
 9t.log
 ------
 Symbolic Z-matrix:
 Charge =  0 Multiplicity = 1
 C                     2.12415   2.3816   -1.05967 
 C                     2.49761   1.88486   0.17328 
 C                     2.26145   2.65487   1.30982 
 C                     1.65659   3.88608   1.20738 
 C                     1.26229   4.3743   -0.03866 
 C                     1.49603   3.61592  -1.17472 
 N                     3.15185   0.6248    0.29973 
 C                     2.64192  -0.56764  -0.06423 
 C                     3.29378  -1.71381  -0.27473 
 C                     1.16374  -0.83555  -0.26597 
 C                     2.34837  -2.76581  -0.61777 
 O                     1.11881  -2.19537  -0.64201 
 Br                    5.13587  -1.99166  -0.14793 
 O                     2.51614  -3.90981  -0.85368 
 C                     0.31456  -0.63206   1.00286 
 C                    -1.17791  -0.68311   0.71611 
 O                     0.72283  -1.52351   1.99604 
 C                    -1.9524    0.44871   0.9236 
 C                    -3.3162    0.43722   0.6825 
 C                    -3.95017  -0.71393   0.23063 
 C                    -3.17064  -1.85032   0.02436 
 C                    -1.80887  -1.83674   0.25928 
 C                    -5.41822  -0.73289  -0.02672 
 C                    -6.30887  -0.16937   0.8834 
 C                    -7.6723   -0.18594   0.64404 
 C                    -8.17082  -0.76691  -0.51014 
 C                    -7.29513  -1.33131  -1.42278 
 C                    -5.93178  -1.31436  -1.18318 
 O                     0.67001   5.58007  -0.03245 
 C                     0.24388   6.15773  -1.23668 
 H                     0.76482  -0.23941  -1.07629 
 H                     0.53907   0.35202   1.38702 
 H                     2.32707   1.80965  -1.948 
 H                     2.55391   2.27429   2.27211 
 H                     1.47112   4.48831   2.07707 
 H                     1.21266   3.96717  -2.14745 
 H                     4.13929   0.63739   0.43511 
 H                     0.48178  -2.40528   1.75978 
 H                    -1.48999   1.35557   1.27423 
 H                    -3.88683   1.33591   0.83457 
 H                    -3.6365   -2.76027  -0.30901 
 H                    -1.24059  -2.72973   0.07376 
 H                    -5.9345    0.26526   1.79317 
 H                    -8.34467   0.24791   1.36318 
 H                    -9.2302   -0.78059  -0.69591 
 H                    -7.67173  -1.7799   -2.3252 
 H                    -5.25997  -1.7388   -1.90794 
 H                     1.07645   6.3216   -1.91331 
 H                    -0.50476   5.54371  -1.72705 
 H                    -0.19356   7.10956  -0.97549 
 
 NAtoms=     50 NQM=       50 NQMF=       0 NMMI=      0 NMMIF=      0
                NMic=       0 NMicF=      0.
                    Isotopes and Nuclear Properties:
 (Nuclear quadrupole moments (NQMom) in fm**2, nuclear magnetic moments (NMagM)
  in nuclear magnetons)

  Atom         1           2           3           4           5           6           7           8           9          10
 IAtWgt=          12          12          12          12          12          12          14          12          12          12
 AtmWgt=  12.0000000  12.0000000  12.0000000  12.0000000  12.0000000  12.0000000  14.0030740  12.0000000  12.0000000  12.0000000
 NucSpn=           0           0           0           0           0           0           2           0           0           0
 AtZEff=   0.0000000   0.0000000   0.0000000   0.0000000   0.0000000   0.0000000   0.0000000   0.0000000   0.0000000   0.0000000
 NQMom=    0.0000000   0.0000000   0.0000000   0.0000000   0.0000000   0.0000000   2.0440000   0.0000000   0.0000000   0.0000000
 NMagM=    0.0000000   0.0000000   0.0000000   0.0000000   0.0000000   0.0000000   0.4037610   0.0000000   0.0000000   0.0000000
 AtZNuc=   6.0000000   6.0000000   6.0000000   6.0000000   6.0000000   6.0000000   7.0000000   6.0000000   6.0000000   6.0000000

  Atom        11          12          13          14          15          16          17          18          19          20
 IAtWgt=          12          16          79          16          12          12          16          12          12          12
 AtmWgt=  12.0000000  15.9949146  78.9183361  15.9949146  12.0000000  12.0000000  15.9949146  12.0000000  12.0000000  12.0000000
 NucSpn=           0           0           3           0           0           0           0           0           0           0
 AtZEff=   0.0000000   0.0000000   0.0000000   0.0000000   0.0000000   0.0000000   0.0000000   0.0000000   0.0000000   0.0000000
 NQMom=    0.0000000   0.0000000  31.3000000   0.0000000   0.0000000   0.0000000   0.0000000   0.0000000   0.0000000   0.0000000
 NMagM=    0.0000000   0.0000000   2.1063990   0.0000000   0.0000000   0.0000000   0.0000000   0.0000000   0.0000000   0.0000000
 AtZNuc=   6.0000000   8.0000000  35.0000000   8.0000000   6.0000000   6.0000000   8.0000000   6.0000000   6.0000000   6.0000000

  Atom        21          22          23          24          25          26          27          28          29          30
 IAtWgt=          12          12          12          12          12          12          12          12          16          12
 AtmWgt=  12.0000000  12.0000000  12.0000000  12.0000000  12.0000000  12.0000000  12.0000000  12.0000000  15.9949146  12.0000000
 NucSpn=           0           0           0           0           0           0           0           0           0           0
 AtZEff=   0.0000000   0.0000000   0.0000000   0.0000000   0.0000000   0.0000000   0.0000000   0.0000000   0.0000000   0.0000000
 NQMom=    0.0000000   0.0000000   0.0000000   0.0000000   0.0000000   0.0000000   0.0000000   0.0000000   0.0000000   0.0000000
 NMagM=    0.0000000   0.0000000   0.0000000   0.0000000   0.0000000   0.0000000   0.0000000   0.0000000   0.0000000   0.0000000
 AtZNuc=   6.0000000   6.0000000   6.0000000   6.0000000   6.0000000   6.0000000   6.0000000   6.0000000   8.0000000   6.0000000

  Atom        31          32          33          34          35          36          37          38          39          40
 IAtWgt=           1           1           1           1           1           1           1           1           1           1
 AtmWgt=   1.0078250   1.0078250   1.0078250   1.0078250   1.0078250   1.0078250   1.0078250   1.0078250   1.0078250   1.0078250
 NucSpn=           1           1           1           1           1           1           1           1           1           1
 AtZEff=   0.0000000   0.0000000   0.0000000   0.0000000   0.0000000   0.0000000   0.0000000   0.0000000   0.0000000   0.0000000
 NQMom=    0.0000000   0.0000000   0.0000000   0.0000000   0.0000000   0.0000000   0.0000000   0.0000000   0.0000000   0.0000000
 NMagM=    2.7928460   2.7928460   2.7928460   2.7928460   2.7928460   2.7928460   2.7928460   2.7928460   2.7928460   2.7928460
 AtZNuc=   1.0000000   1.0000000   1.0000000   1.0000000   1.0000000   1.0000000   1.0000000   1.0000000   1.0000000   1.0000000

  Atom        41          42          43          44          45          46          47          48          49          50
 IAtWgt=           1           1           1           1           1           1           1           1           1           1
 AtmWgt=   1.0078250   1.0078250   1.0078250   1.0078250   1.0078250   1.0078250   1.0078250   1.0078250   1.0078250   1.0078250
 NucSpn=           1           1           1           1           1           1           1           1           1           1
 AtZEff=   0.0000000   0.0000000   0.0000000   0.0000000   0.0000000   0.0000000   0.0000000   0.0000000   0.0000000   0.0000000
 NQMom=    0.0000000   0.0000000   0.0000000   0.0000000   0.0000000   0.0000000   0.0000000   0.0000000   0.0000000   0.0000000
 NMagM=    2.7928460   2.7928460   2.7928460   2.7928460   2.7928460   2.7928460   2.7928460   2.7928460   2.7928460   2.7928460
 AtZNuc=   1.0000000   1.0000000   1.0000000   1.0000000   1.0000000   1.0000000   1.0000000   1.0000000   1.0000000   1.0000000
 Leave Link  101 at Tue Jul 09 03:18:24 2019, MaxMem=   209715200 cpu:         0.0
 (Enter C:\G09W\l103.exe)

 GradGradGradGradGradGradGradGradGradGradGradGradGradGradGradGradGradGrad
 Berny optimization.
 Initialization pass.
                           ----------------------------
                           !    Initial Parameters    !
                           ! (Angstroms and Degrees)  !
 --------------------------                            --------------------------
 ! Name  Definition              Value          Derivative Info.                !
 --------------------------------------------------------------------------------
 ! R1    R(1,2)                  1.3807         estimate D2E/DX2                !
 ! R2    R(1,6)                  1.3897         estimate D2E/DX2                !
 ! R3    R(1,33)                 1.0758         estimate D2E/DX2                !
 ! R4    R(2,3)                  1.393          estimate D2E/DX2                !
 ! R5    R(2,7)                  1.4254         estimate D2E/DX2                !
 ! R6    R(3,4)                  1.3756         estimate D2E/DX2                !
 ! R7    R(3,34)                 1.0754         estimate D2E/DX2                !
 ! R8    R(4,5)                  1.3951         estimate D2E/DX2                !
 ! R9    R(4,35)                 1.074          estimate D2E/DX2                !
 ! R10   R(5,6)                  1.3858         estimate D2E/DX2                !
 ! R11   R(5,29)                 1.3434         estimate D2E/DX2                !
 ! R12   R(6,36)                 1.0723         estimate D2E/DX2                !
 ! R13   R(7,8)                  1.347          estimate D2E/DX2                !
 ! R14   R(7,37)                 0.9968         estimate D2E/DX2                !
 ! R15   R(8,9)                  1.3353         estimate D2E/DX2                !
 ! R16   R(8,10)                 1.5158         estimate D2E/DX2                !
 ! R17   R(9,11)                 1.4554         estimate D2E/DX2                !
 ! R18   R(9,13)                 1.8672         estimate D2E/DX2                !
 ! R19   R(10,12)                1.4116         estimate D2E/DX2                !
 ! R20   R(10,15)                1.5403         estimate D2E/DX2                !
 ! R21   R(10,31)                1.0822         estimate D2E/DX2                !
 ! R22   R(11,12)                1.3557         estimate D2E/DX2                !
 ! R23   R(11,14)                1.1801         estimate D2E/DX2                !
 ! R24   R(15,16)                1.5206         estimate D2E/DX2                !
 ! R25   R(15,17)                1.3956         estimate D2E/DX2                !
 ! R26   R(15,32)                1.08           estimate D2E/DX2                !
 ! R27   R(16,18)                1.3871         estimate D2E/DX2                !
 ! R28   R(16,22)                1.392          estimate D2E/DX2                !
 ! R29   R(17,38)                0.9442         estimate D2E/DX2                !
 ! R30   R(18,19)                1.385          estimate D2E/DX2                !
 ! R31   R(18,39)                1.0766         estimate D2E/DX2                !
 ! R32   R(19,20)                1.3897         estimate D2E/DX2                !
 ! R33   R(19,40)                1.0754         estimate D2E/DX2                !
 ! R34   R(20,21)                1.3934         estimate D2E/DX2                !
 ! R35   R(20,23)                1.4906         estimate D2E/DX2                !
 ! R36   R(21,22)                1.382          estimate D2E/DX2                !
 ! R37   R(21,41)                1.0753         estimate D2E/DX2                !
 ! R38   R(22,42)                1.0746         estimate D2E/DX2                !
 ! R39   R(23,24)                1.3925         estimate D2E/DX2                !
 ! R40   R(23,28)                1.3926         estimate D2E/DX2                !
 ! R41   R(24,25)                1.3844         estimate D2E/DX2                !
 ! R42   R(24,43)                1.0755         estimate D2E/DX2                !
 ! R43   R(25,26)                1.385          estimate D2E/DX2                !
 ! R44   R(25,44)                1.0759         estimate D2E/DX2                !
 ! R45   R(26,27)                1.385          estimate D2E/DX2                !
 ! R46   R(26,45)                1.0756         estimate D2E/DX2                !
 ! R47   R(27,28)                1.3843         estimate D2E/DX2                !
 ! R48   R(27,46)                1.0758         estimate D2E/DX2                !
 ! R49   R(28,47)                1.0755         estimate D2E/DX2                !
 ! R50   R(29,30)                1.4019         estimate D2E/DX2                !
 ! R51   R(30,48)                1.0853         estimate D2E/DX2                !
 ! R52   R(30,49)                1.0853         estimate D2E/DX2                !
 ! R53   R(30,50)                1.0796         estimate D2E/DX2                !
 ! A1    A(2,1,6)              121.045          estimate D2E/DX2                !
 ! A2    A(2,1,33)             119.6733         estimate D2E/DX2                !
 ! A3    A(6,1,33)             119.2804         estimate D2E/DX2                !
 ! A4    A(1,2,3)              118.9373         estimate D2E/DX2                !
 ! A5    A(1,2,7)              121.4259         estimate D2E/DX2                !
 ! A6    A(3,2,7)              119.6102         estimate D2E/DX2                !
 ! A7    A(2,3,4)              120.5672         estimate D2E/DX2                !
 ! A8    A(2,3,34)             119.2344         estimate D2E/DX2                !
 ! A9    A(4,3,34)             120.1979         estimate D2E/DX2                !
 ! A10   A(3,4,5)              120.2651         estimate D2E/DX2                !
 ! A11   A(3,4,35)             121.1664         estimate D2E/DX2                !
 ! A12   A(5,4,35)             118.5672         estimate D2E/DX2                !
 ! A13   A(4,5,6)              119.5373         estimate D2E/DX2                !
 ! A14   A(4,5,29)             115.7582         estimate D2E/DX2                !
 ! A15   A(6,5,29)             124.7045         estimate D2E/DX2                !
 ! A16   A(1,6,5)              119.6325         estimate D2E/DX2                !
 ! A17   A(1,6,36)             119.0424         estimate D2E/DX2                !
 ! A18   A(5,6,36)             121.3206         estimate D2E/DX2                !
 ! A19   A(2,7,8)              125.7918         estimate D2E/DX2                !
 ! A20   A(2,7,37)             117.102          estimate D2E/DX2                !
 ! A21   A(8,7,37)             115.0188         estimate D2E/DX2                !
 ! A22   A(7,8,9)              128.1463         estimate D2E/DX2                !
 ! A23   A(7,8,10)             124.1678         estimate D2E/DX2                !
 ! A24   A(9,8,10)             107.661          estimate D2E/DX2                !
 ! A25   A(8,9,11)             109.9076         estimate D2E/DX2                !
 ! A26   A(8,9,13)             126.7725         estimate D2E/DX2                !
 ! A27   A(11,9,13)            123.3177         estimate D2E/DX2                !
 ! A28   A(8,10,12)            103.6959         estimate D2E/DX2                !
 ! A29   A(8,10,15)            113.87           estimate D2E/DX2                !
 ! A30   A(8,10,31)            111.2093         estimate D2E/DX2                !
 ! A31   A(12,10,15)           109.219          estimate D2E/DX2                !
 ! A32   A(12,10,31)           108.6301         estimate D2E/DX2                !
 ! A33   A(15,10,31)           109.9265         estimate D2E/DX2                !
 ! A34   A(9,11,12)            106.8115         estimate D2E/DX2                !
 ! A35   A(9,11,14)            130.9585         estimate D2E/DX2                !
 ! A36   A(12,11,14)           122.2285         estimate D2E/DX2                !
 ! A37   A(10,12,11)           111.8219         estimate D2E/DX2                !
 ! A38   A(10,15,16)           112.416          estimate D2E/DX2                !
 ! A39   A(10,15,17)           109.9104         estimate D2E/DX2                !
 ! A40   A(10,15,32)           107.385          estimate D2E/DX2                !
 ! A41   A(16,15,17)           113.5701         estimate D2E/DX2                !
 ! A42   A(16,15,32)           107.56           estimate D2E/DX2                !
 ! A43   A(17,15,32)           105.5501         estimate D2E/DX2                !
 ! A44   A(15,16,18)           119.5003         estimate D2E/DX2                !
 ! A45   A(15,16,22)           122.3169         estimate D2E/DX2                !
 ! A46   A(18,16,22)           118.1804         estimate D2E/DX2                !
 ! A47   A(15,17,38)           110.1078         estimate D2E/DX2                !
 ! A48   A(16,18,19)           121.1324         estimate D2E/DX2                !
 ! A49   A(16,18,39)           119.7496         estimate D2E/DX2                !
 ! A50   A(19,18,39)           119.1175         estimate D2E/DX2                !
 ! A51   A(18,19,20)           120.8433         estimate D2E/DX2                !
 ! A52   A(18,19,40)           119.4045         estimate D2E/DX2                !
 ! A53   A(20,19,40)           119.7466         estimate D2E/DX2                !
 ! A54   A(19,20,21)           117.9353         estimate D2E/DX2                !
 ! A55   A(19,20,23)           121.0631         estimate D2E/DX2                !
 ! A56   A(21,20,23)           121.0016         estimate D2E/DX2                !
 ! A57   A(20,21,22)           121.2044         estimate D2E/DX2                !
 ! A58   A(20,21,41)           119.5832         estimate D2E/DX2                !
 ! A59   A(22,21,41)           119.2055         estimate D2E/DX2                !
 ! A60   A(16,22,21)           120.7031         estimate D2E/DX2                !
 ! A61   A(16,22,42)           120.3739         estimate D2E/DX2                !
 ! A62   A(21,22,42)           118.92           estimate D2E/DX2                !
 ! A63   A(20,23,24)           120.7937         estimate D2E/DX2                !
 ! A64   A(20,23,28)           120.791          estimate D2E/DX2                !
 ! A65   A(24,23,28)           118.4153         estimate D2E/DX2                !
 ! A66   A(23,24,25)           120.8016         estimate D2E/DX2                !
 ! A67   A(23,24,43)           119.5871         estimate D2E/DX2                !
 ! A68   A(25,24,43)           119.5983         estimate D2E/DX2                !
 ! A69   A(24,25,26)           120.2391         estimate D2E/DX2                !
 ! A70   A(24,25,44)           119.6763         estimate D2E/DX2                !
 ! A71   A(26,25,44)           120.0827         estimate D2E/DX2                !
 ! A72   A(25,26,27)           119.5037         estimate D2E/DX2                !
 ! A73   A(25,26,45)           120.2495         estimate D2E/DX2                !
 ! A74   A(27,26,45)           120.2467         estimate D2E/DX2                !
 ! A75   A(26,27,28)           120.2409         estimate D2E/DX2                !
 ! A76   A(26,27,46)           120.0865         estimate D2E/DX2                !
 ! A77   A(28,27,46)           119.6715         estimate D2E/DX2                !
 ! A78   A(23,28,27)           120.7994         estimate D2E/DX2                !
 ! A79   A(23,28,47)           119.6061         estimate D2E/DX2                !
 ! A80   A(27,28,47)           119.5842         estimate D2E/DX2                !
 ! A81   A(5,29,30)            119.9914         estimate D2E/DX2                !
 ! A82   A(29,30,48)           111.3802         estimate D2E/DX2                !
 ! A83   A(29,30,49)           111.386          estimate D2E/DX2                !
 ! A84   A(29,30,50)           106.1779         estimate D2E/DX2                !
 ! A85   A(48,30,49)           109.4446         estimate D2E/DX2                !
 ! A86   A(48,30,50)           109.1809         estimate D2E/DX2                !
 ! A87   A(49,30,50)           109.1844         estimate D2E/DX2                !
 ! D1    D(6,1,2,3)             -1.3742         estimate D2E/DX2                !
 ! D2    D(6,1,2,7)           -179.4918         estimate D2E/DX2                !
 ! D3    D(33,1,2,3)           178.2099         estimate D2E/DX2                !
 ! D4    D(33,1,2,7)             0.0923         estimate D2E/DX2                !
 ! D5    D(2,1,6,5)              1.2488         estimate D2E/DX2                !
 ! D6    D(2,1,6,36)          -179.5076         estimate D2E/DX2                !
 ! D7    D(33,1,6,5)          -178.3369         estimate D2E/DX2                !
 ! D8    D(33,1,6,36)            0.9067         estimate D2E/DX2                !
 ! D9    D(1,2,3,4)              0.4948         estimate D2E/DX2                !
 ! D10   D(1,2,3,34)          -179.7615         estimate D2E/DX2                !
 ! D11   D(7,2,3,4)            178.6474         estimate D2E/DX2                !
 ! D12   D(7,2,3,34)            -1.609          estimate D2E/DX2                !
 ! D13   D(1,2,7,8)            -61.5142         estimate D2E/DX2                !
 ! D14   D(1,2,7,37)           101.1701         estimate D2E/DX2                !
 ! D15   D(3,2,7,8)            120.3806         estimate D2E/DX2                !
 ! D16   D(3,2,7,37)           -76.9351         estimate D2E/DX2                !
 ! D17   D(2,3,4,5)              0.5007         estimate D2E/DX2                !
 ! D18   D(2,3,4,35)          -179.9165         estimate D2E/DX2                !
 ! D19   D(34,3,4,5)          -179.2405         estimate D2E/DX2                !
 ! D20   D(34,3,4,35)            0.3423         estimate D2E/DX2                !
 ! D21   D(3,4,5,6)             -0.6307         estimate D2E/DX2                !
 ! D22   D(3,4,5,29)           179.4249         estimate D2E/DX2                !
 ! D23   D(35,4,5,6)           179.7758         estimate D2E/DX2                !
 ! D24   D(35,4,5,29)           -0.1686         estimate D2E/DX2                !
 ! D25   D(4,5,6,1)             -0.2327         estimate D2E/DX2                !
 ! D26   D(4,5,6,36)          -179.4585         estimate D2E/DX2                !
 ! D27   D(29,5,6,1)           179.7064         estimate D2E/DX2                !
 ! D28   D(29,5,6,36)            0.4805         estimate D2E/DX2                !
 ! D29   D(4,5,29,30)          179.7059         estimate D2E/DX2                !
 ! D30   D(6,5,29,30)           -0.2352         estimate D2E/DX2                !
 ! D31   D(2,7,8,9)            162.283          estimate D2E/DX2                !
 ! D32   D(2,7,8,10)           -19.7584         estimate D2E/DX2                !
 ! D33   D(37,7,8,9)            -0.716          estimate D2E/DX2                !
 ! D34   D(37,7,8,10)          177.2426         estimate D2E/DX2                !
 ! D35   D(7,8,9,11)           178.4475         estimate D2E/DX2                !
 ! D36   D(7,8,9,13)            -1.0192         estimate D2E/DX2                !
 ! D37   D(10,8,9,11)            0.22           estimate D2E/DX2                !
 ! D38   D(10,8,9,13)         -179.2467         estimate D2E/DX2                !
 ! D39   D(7,8,10,12)          179.6698         estimate D2E/DX2                !
 ! D40   D(7,8,10,15)          -61.7528         estimate D2E/DX2                !
 ! D41   D(7,8,10,31)           63.1015         estimate D2E/DX2                !
 ! D42   D(9,8,10,12)           -2.0149         estimate D2E/DX2                !
 ! D43   D(9,8,10,15)          116.5624         estimate D2E/DX2                !
 ! D44   D(9,8,10,31)         -118.5833         estimate D2E/DX2                !
 ! D45   D(8,9,11,12)            1.7598         estimate D2E/DX2                !
 ! D46   D(8,9,11,14)         -178.6884         estimate D2E/DX2                !
 ! D47   D(13,9,11,12)        -178.7513         estimate D2E/DX2                !
 ! D48   D(13,9,11,14)           0.8004         estimate D2E/DX2                !
 ! D49   D(8,10,12,11)           3.2196         estimate D2E/DX2                !
 ! D50   D(15,10,12,11)       -118.519          estimate D2E/DX2                !
 ! D51   D(31,10,12,11)        121.5861         estimate D2E/DX2                !
 ! D52   D(8,10,15,16)         170.5442         estimate D2E/DX2                !
 ! D53   D(8,10,15,17)         -61.9053         estimate D2E/DX2                !
 ! D54   D(8,10,15,32)          52.4362         estimate D2E/DX2                !
 ! D55   D(12,10,15,16)        -74.0859         estimate D2E/DX2                !
 ! D56   D(12,10,15,17)         53.4646         estimate D2E/DX2                !
 ! D57   D(12,10,15,32)        167.806          estimate D2E/DX2                !
 ! D58   D(31,10,15,16)         45.0074         estimate D2E/DX2                !
 ! D59   D(31,10,15,17)        172.5579         estimate D2E/DX2                !
 ! D60   D(31,10,15,32)        -73.1007         estimate D2E/DX2                !
 ! D61   D(9,11,12,10)          -3.1706         estimate D2E/DX2                !
 ! D62   D(14,11,12,10)        177.2295         estimate D2E/DX2                !
 ! D63   D(10,15,16,18)       -115.8726         estimate D2E/DX2                !
 ! D64   D(10,15,16,22)         64.706          estimate D2E/DX2                !
 ! D65   D(17,15,16,18)        118.5448         estimate D2E/DX2                !
 ! D66   D(17,15,16,22)        -60.8766         estimate D2E/DX2                !
 ! D67   D(32,15,16,18)          2.1321         estimate D2E/DX2                !
 ! D68   D(32,15,16,22)       -177.2893         estimate D2E/DX2                !
 ! D69   D(10,15,17,38)        -69.7328         estimate D2E/DX2                !
 ! D70   D(16,15,17,38)         57.1731         estimate D2E/DX2                !
 ! D71   D(32,15,17,38)        174.7585         estimate D2E/DX2                !
 ! D72   D(15,16,18,19)       -179.5396         estimate D2E/DX2                !
 ! D73   D(15,16,18,39)          0.7098         estimate D2E/DX2                !
 ! D74   D(22,16,18,19)         -0.0943         estimate D2E/DX2                !
 ! D75   D(22,16,18,39)       -179.845          estimate D2E/DX2                !
 ! D76   D(15,16,22,21)        179.2286         estimate D2E/DX2                !
 ! D77   D(15,16,22,42)         -1.4134         estimate D2E/DX2                !
 ! D78   D(18,16,22,21)         -0.2001         estimate D2E/DX2                !
 ! D79   D(18,16,22,42)        179.1579         estimate D2E/DX2                !
 ! D80   D(16,18,19,20)          0.3117         estimate D2E/DX2                !
 ! D81   D(16,18,19,40)       -178.8218         estimate D2E/DX2                !
 ! D82   D(39,18,19,20)       -179.9361         estimate D2E/DX2                !
 ! D83   D(39,18,19,40)          0.9304         estimate D2E/DX2                !
 ! D84   D(18,19,20,21)         -0.226          estimate D2E/DX2                !
 ! D85   D(18,19,20,23)        179.8246         estimate D2E/DX2                !
 ! D86   D(40,19,20,21)        178.9046         estimate D2E/DX2                !
 ! D87   D(40,19,20,23)         -1.0449         estimate D2E/DX2                !
 ! D88   D(19,20,21,22)         -0.0687         estimate D2E/DX2                !
 ! D89   D(19,20,21,41)        178.9688         estimate D2E/DX2                !
 ! D90   D(23,20,21,22)        179.8808         estimate D2E/DX2                !
 ! D91   D(23,20,21,41)         -1.0816         estimate D2E/DX2                !
 ! D92   D(19,20,23,24)        -45.0231         estimate D2E/DX2                !
 ! D93   D(19,20,23,28)        134.9646         estimate D2E/DX2                !
 ! D94   D(21,20,23,24)        135.029          estimate D2E/DX2                !
 ! D95   D(21,20,23,28)        -44.9833         estimate D2E/DX2                !
 ! D96   D(20,21,22,16)          0.2848         estimate D2E/DX2                !
 ! D97   D(20,21,22,42)       -179.0824         estimate D2E/DX2                !
 ! D98   D(41,21,22,16)       -178.7563         estimate D2E/DX2                !
 ! D99   D(41,21,22,42)          1.8765         estimate D2E/DX2                !
 ! D100  D(20,23,24,25)        179.9486         estimate D2E/DX2                !
 ! D101  D(20,23,24,43)         -1.3691         estimate D2E/DX2                !
 ! D102  D(28,23,24,25)         -0.0394         estimate D2E/DX2                !
 ! D103  D(28,23,24,43)        178.643          estimate D2E/DX2                !
 ! D104  D(20,23,28,27)       -179.9587         estimate D2E/DX2                !
 ! D105  D(20,23,28,47)         -1.1308         estimate D2E/DX2                !
 ! D106  D(24,23,28,27)          0.0293         estimate D2E/DX2                !
 ! D107  D(24,23,28,47)        178.8572         estimate D2E/DX2                !
 ! D108  D(23,24,25,26)          0.0188         estimate D2E/DX2                !
 ! D109  D(23,24,25,44)        179.5248         estimate D2E/DX2                !
 ! D110  D(43,24,25,26)       -178.6634         estimate D2E/DX2                !
 ! D111  D(43,24,25,44)          0.8425         estimate D2E/DX2                !
 ! D112  D(24,25,26,27)          0.0126         estimate D2E/DX2                !
 ! D113  D(24,25,26,45)        179.9506         estimate D2E/DX2                !
 ! D114  D(44,25,26,27)       -179.4913         estimate D2E/DX2                !
 ! D115  D(44,25,26,45)          0.4467         estimate D2E/DX2                !
 ! D116  D(25,26,27,28)         -0.0227         estimate D2E/DX2                !
 ! D117  D(25,26,27,46)       -179.6358         estimate D2E/DX2                !
 ! D118  D(45,26,27,28)       -179.9607         estimate D2E/DX2                !
 ! D119  D(45,26,27,46)          0.4263         estimate D2E/DX2                !
 ! D120  D(26,27,28,23)          0.0015         estimate D2E/DX2                !
 ! D121  D(26,27,28,47)       -178.8267         estimate D2E/DX2                !
 ! D122  D(46,27,28,23)        179.6162         estimate D2E/DX2                !
 ! D123  D(46,27,28,47)          0.788          estimate D2E/DX2                !
 ! D124  D(5,29,30,48)         -61.2582         estimate D2E/DX2                !
 ! D125  D(5,29,30,49)          61.2384         estimate D2E/DX2                !
 ! D126  D(5,29,30,50)         179.9938         estimate D2E/DX2                !
 --------------------------------------------------------------------------------
 Trust Radius=3.00D-01 FncErr=1.00D-07 GrdErr=1.00D-06
 Number of steps in this run=    276 maximum allowed number of steps=    300.
 GradGradGradGradGradGradGradGradGradGradGradGradGradGradGradGradGradGrad

 Leave Link  103 at Tue Jul 09 03:18:24 2019, MaxMem=   209715200 cpu:         0.0
 (Enter C:\G09W\l202.exe)
                          Input orientation:                          
 ---------------------------------------------------------------------
 Center     Atomic      Atomic             Coordinates (Angstroms)
 Number     Number       Type             X           Y           Z
 ---------------------------------------------------------------------
      1          6           0        2.124153    2.381599   -1.059672
      2          6           0        2.497609    1.884857    0.173283
      3          6           0        2.261454    2.654866    1.309815
      4          6           0        1.656593    3.886076    1.207376
      5          6           0        1.262287    4.374302   -0.038656
      6          6           0        1.496031    3.615921   -1.174715
      7          7           0        3.151853    0.624795    0.299725
      8          6           0        2.641921   -0.567641   -0.064230
      9          6           0        3.293777   -1.713805   -0.274732
     10          6           0        1.163735   -0.835553   -0.265967
     11          6           0        2.348373   -2.765810   -0.617772
     12          8           0        1.118805   -2.195368   -0.642014
     13         35           0        5.135872   -1.991662   -0.147933
     14          8           0        2.516141   -3.909811   -0.853677
     15          6           0        0.314556   -0.632055    1.002863
     16          6           0       -1.177905   -0.683114    0.716110
     17          8           0        0.722828   -1.523509    1.996036
     18          6           0       -1.952401    0.448708    0.923600
     19          6           0       -3.316197    0.437215    0.682500
     20          6           0       -3.950169   -0.713934    0.230631
     21          6           0       -3.170642   -1.850318    0.024361
     22          6           0       -1.808868   -1.836740    0.259281
     23          6           0       -5.418217   -0.732891   -0.026718
     24          6           0       -6.308873   -0.169365    0.883401
     25          6           0       -7.672301   -0.185944    0.644042
     26          6           0       -8.170823   -0.766911   -0.510144
     27          6           0       -7.295131   -1.331309   -1.422778
     28          6           0       -5.931778   -1.314358   -1.183184
     29          8           0        0.670010    5.580073   -0.032450
     30          6           0        0.243877    6.157734   -1.236684
     31          1           0        0.764817   -0.239413   -1.076288
     32          1           0        0.539065    0.352020    1.387015
     33          1           0        2.327068    1.809646   -1.947995
     34          1           0        2.553906    2.274290    2.272113
     35          1           0        1.471116    4.488305    2.077066
     36          1           0        1.212657    3.967165   -2.147454
     37          1           0        4.139287    0.637389    0.435107
     38          1           0        0.481783   -2.405282    1.759783
     39          1           0       -1.489988    1.355573    1.274234
     40          1           0       -3.886833    1.335910    0.834573
     41          1           0       -3.636497   -2.760271   -0.309014
     42          1           0       -1.240592   -2.729727    0.073760
     43          1           0       -5.934497    0.265258    1.793168
     44          1           0       -8.344665    0.247914    1.363178
     45          1           0       -9.230195   -0.780589   -0.695908
     46          1           0       -7.671732   -1.779896   -2.325196
     47          1           0       -5.259968   -1.738803   -1.907937
     48          1           0        1.076455    6.321595   -1.913306
     49          1           0       -0.504756    5.543714   -1.727053
     50          1           0       -0.193561    7.109563   -0.975494
 ---------------------------------------------------------------------
                    Distance matrix (angstroms):
                    1          2          3          4          5
     1  C    0.000000
     2  C    1.380724   0.000000
     3  C    2.389141   1.392978   0.000000
     4  C    2.760719   2.404482   1.375583   0.000000
     5  C    2.399198   2.787163   2.402742   1.395148   0.000000
     6  C    1.389720   2.411813   2.771712   2.402732   1.385788
     7  N    2.447547   1.425405   2.436038   3.700755   4.212335
     8  C    3.155472   2.468195   3.523820   4.735340   5.130969
     9  C    4.330876   3.712811   4.760438   6.019608   6.422440
    10  C    3.449991   3.061501   3.983855   4.970657   5.215743
    11  C    5.171206   4.719824   5.753857   6.932338   7.245423
    12  O    4.704656   4.383383   5.351640   6.379139   6.598878
    13  Br   5.387683   4.700108   5.654868   6.963480   7.452657
    14  O    6.306975   5.884995   6.916686   8.109415   8.418013
    15  C    4.075635   3.433478   3.832555   4.717669   5.200631
    16  C    4.842464   4.516474   4.829471   5.399372   5.665833
    17  O    5.152760   4.253144   4.505229   5.545946   6.262201
    18  C    4.928258   4.735830   4.772093   4.992080   5.164344
    19  C    6.034335   6.012929   6.035039   6.074436   6.081384
    20  C    6.938631   6.952039   7.148266   7.317780   7.289195
    21  C    6.864336   6.789903   7.173335   7.589989   7.642037
    22  C    5.916306   5.692401   6.151883   6.757139   6.935258
    23  C    8.225229   8.339839   8.499445   8.538781   8.409084
    24  C    9.022133   9.070734   9.033749   8.944284   8.877926
    25  C   10.269636  10.389269  10.353403  10.194457  10.054292
    26  C   10.779686  11.014281  11.128936  11.008100  10.753508
    27  C   10.131162  10.430191  10.709107  10.689817  10.377822
    28  C    8.864163   9.117540   9.439218   9.504876   9.242584
    29  O    3.660595   4.127598   3.590432   2.319513   1.343397
    30  C    4.222081   5.032374   4.777589   3.623483   2.377616
    31  H    2.952588   3.012726   4.038596   4.798963   4.755052
    32  H    3.552179   2.767423   2.876749   3.710888   4.328318
    33  H    1.075836   2.129451   3.366308   3.836335   3.369984
    34  H    3.361100   2.135396   1.075353   2.129951   3.379051
    35  H    3.834552   3.384674   2.138880   1.073984   2.129057
    36  H    2.127937   3.372377   3.843802   3.385046   2.148314
    37  H    3.055716   2.078421   2.891640   4.161026   4.739842
    38  H    5.793180   4.998583   5.382824   6.423902   7.057360
    39  H    4.422879   4.170511   3.970232   4.038426   4.290853
    40  H    6.388551   6.442030   6.306103   6.113256   6.042168
    41  H    7.758054   7.709545   8.168852   8.630769   8.658713
    42  H    6.223490   5.939565   6.541101   7.310788   7.532879
    43  H    8.806783   8.737708   8.550875   8.430784   8.487256
    44  H   10.955317  11.029521  10.875938  10.643574  10.549206
    45  H   11.792073  12.058254  12.160727  11.996766  11.708845
    46  H   10.718160  11.094517  11.469464  11.471702  11.086889
    47  H    8.498383   8.811492   9.286013   9.443689   9.132583
    48  H    4.165325   5.104721   5.023707   4.000871   2.709390
    49  H    4.165997   5.100265   5.021945   4.003757   2.709363
    50  H    5.266168   5.988292   5.576205   4.310320   3.237099
                    6          7          8          9         10
     6  C    0.000000
     7  N    3.723245   0.000000
     8  C    4.477548   1.346996   0.000000
     9  C    5.696300   2.412300   1.335260   0.000000
    10  C    4.555421   2.530857   1.515753   2.304014   0.000000
    11  C    6.462442   3.603274   2.285722   1.455397   2.291948
    12  O    5.847833   3.601871   2.302870   2.257721   1.411569
    13  Br   6.763705   3.313997   2.873088   1.867243   4.138646
    14  O    7.601338   4.721982   3.436444   2.400487   3.409614
    15  C    4.917624   3.181875   2.561145   3.417337   1.540275
    16  C    5.404337   4.542115   3.900428   4.694681   2.543814
    17  O    6.088123   3.659623   2.973432   3.435459   2.405065
    18  C    5.130872   5.145254   4.807969   5.799556   3.574171
    19  C    6.058957   6.482081   6.088227   7.016761   4.752822
    20  C    7.098150   7.227426   6.600303   7.330067   5.139398
    21  C    7.286658   6.795289   5.953066   6.472774   4.461038
    22  C    6.535305   5.538009   4.639482   5.131985   3.180351
    23  C    8.248448   8.683086   8.061919   8.770550   6.587099
    24  C    8.915198   9.511924   9.009625   9.794767   7.589778
    25  C   10.090608  10.859934  10.345555  11.110057   8.906494
    26  C   10.634798  11.436596  10.823769  11.506045   9.338003
    27  C   10.090647  10.767211  10.058521  10.657827   8.551982
    28  C    8.915160   9.405939   8.678592   9.278777   7.170554
    29  O    2.417638   5.551996   6.456302   7.755225   6.438832
    30  C    2.834174   6.436637   7.235740   8.496374   7.120007
    31  H    3.925298   2.887596   2.157664   3.035121   1.082192
    32  H    4.258086   2.843109   2.715491   3.823281   2.129059
    33  H    2.133357   2.671402   3.049458   4.018587   3.343597
    34  H    3.847037   2.639827   3.680057   4.789439   4.248005
    35  H    3.366861   4.572803   5.614136   6.878896   5.824753
    36  H    1.072331   4.573905   5.191058   6.333369   5.158341
    37  H    4.295344   0.996751   1.985835   2.597474   3.393372
    38  H    6.774575   4.294463   3.371964   3.539026   2.651937
    39  H    4.474688   4.798999   4.750043   5.891077   3.770345
    40  H    6.181498   7.094706   6.859736   7.879878   5.606664
    41  H    8.230924   7.609923   6.654779   7.008920   5.171907
    42  H    7.022467   5.531496   4.446073   4.659833   3.079626
    43  H    8.674562   9.215281   8.814681   9.661984   7.472397
    44  H   10.706244  11.551749  11.108902  11.915722   9.707610
    45  H   11.602176  12.501260  11.890816  12.565753  10.402964
    46  H   10.699828  11.393978  10.627933  11.155768   9.121276
    47  H    8.651833   9.012164   8.198215   8.708303   6.691479
    48  H    2.835883   6.454325   7.302831   8.495240   7.344802
    49  H    2.832775   6.455570   7.072144   8.319235   6.753790
    50  H    3.885865   7.407442   8.234672   9.513381   8.091387
                   11         12         13         14         15
    11  C    0.000000
    12  O    1.355666   0.000000
    13  Br   2.930905   4.052461   0.000000
    14  O    1.180057   2.221860   3.322704   0.000000
    15  C    3.363894   2.407568   5.139840   4.363187   0.000000
    16  C    4.307145   3.066968   6.505586   5.149930   1.520616
    17  O    3.319292   2.750909   4.928562   4.126896   1.395625
    18  C    5.586198   4.344490   7.572794   6.490244   2.512653
    19  C    6.636070   5.324854   8.833263   7.434557   3.798465
    20  C    6.678444   5.352631   9.183248   7.294006   4.334850
    21  C    5.631162   4.354592   8.309503   6.111625   3.819455
    22  C    4.349143   3.084188   6.958393   4.923617   2.552079
    23  C    8.049970   6.726818  10.629581   8.586659   5.825366
    24  C    9.162039   7.848693  11.634715   9.741111   6.640645
    25  C   10.424097   9.109076  12.959056  10.950557   8.007350
    26  C   10.707972   9.399738  13.367847  11.144821   8.620269
    27  C    9.782791   8.494146  12.513638  10.160394   8.017483
    28  C    8.425396   7.125992  11.136578   8.843771   6.652896
    29  O    8.533069   7.812200   8.791384   9.702603   6.307833
    30  C    9.189211   8.419824   9.567113  10.327891   7.149951
    31  H    3.016715   2.034616   4.799827   4.072900   2.163278
    32  H    4.124758   3.307906   5.383265   5.205068   1.079991
    33  H    4.764950   4.382422   5.057623   5.826274   4.326624
    34  H    5.813457   5.525350   5.542699   6.929292   3.882335
    35  H    7.788062   7.224196   7.769880   8.955986   5.358137
    36  H    6.997337   6.344444   7.409273   8.088243   5.646584
    37  H    3.987191   4.278786   2.871415   4.997259   4.069693
    38  H    3.044159   2.493690   5.046881   3.637636   1.935259
    39  H    5.941254   4.804892   7.558344   6.949917   2.698275
    40  H    7.603368   6.301321   9.666812   8.447831   4.642508
    41  H    5.992832   4.800302   8.807449   6.282758   4.675590
    42  H    3.655159   2.522821   6.422864   4.045464   2.771632
    43  H    9.143628   7.857090  11.463622   9.790315   6.362422
    44  H   11.284846   9.977359  13.748601  11.838844   8.711273
    45  H   11.747785  10.445396  14.427434  12.157028   9.695884
    46  H   10.212239   8.959869  12.993077  10.511644   8.727790
    47  H    7.784993   6.519184  10.546802   8.142027   6.385371
    48  H    9.266991   8.611425   9.418368  10.386394   7.578772
    49  H    8.855452   7.981645   9.544223   9.962818   6.801752
    50  H   10.203548   9.402939  10.579225  11.348301   8.006543
                   16         17         18         19         20
    16  C    0.000000
    17  O    2.440750   0.000000
    18  C    1.387053   3.492364   0.000000
    19  C    2.414241   4.677984   1.384991   0.000000
    20  C    2.814620   5.060530   2.413093   1.389694   0.000000
    21  C    2.410785   4.376461   2.752864   2.384773   1.393405
    22  C    1.391999   3.086084   2.384364   2.760802   2.417992
    23  C    4.305173   6.513758   3.783010   2.508112   1.490555
    24  C    5.159337   7.246826   4.400282   3.060132   2.507219
    25  C    6.513797   8.607854   5.761787   4.400619   3.782056
    26  C    7.100114   9.270944   6.496316   5.141956   4.285496
    27  C    6.512715   8.718538   6.100714   4.836506   3.782021
    28  C    5.158013   7.378005   4.835533   3.659242   2.507221
    29  O    6.572872   7.387721   5.841402   6.545990   7.812157
    30  C    7.254796   8.347537   6.487175   7.005836   8.183084
    31  H    2.680248   3.330141   3.443303   4.495090   4.915720
    32  H    2.114143   1.980476   2.536041   3.920031   4.756753
    33  H    5.059263   5.407300   5.330297   6.375697   7.107642
    34  H    5.009371   4.225203   5.045596   6.352938   7.443126
    35  H    5.967670   6.058746   5.419345   6.424524   7.737115
    36  H    5.961533   6.896082   5.641676   6.401539   7.363610
    37  H    5.485911   4.333379   6.114155   7.462273   8.204095
    38  H    2.609536   0.944162   3.843138   4.864666   4.984091
    39  H    2.136619   3.702251   1.076649   2.128044   3.380008
    40  H    3.380648   5.547454   2.130042   1.075362   2.137900
    41  H    3.377889   5.083950   3.827932   3.362976   2.139416
    42  H    2.145966   3.000854   3.366207   3.835130   3.380804
    43  H    4.968363   6.896435   4.080060   2.849324   2.708855
    44  H    7.255891   9.260555   6.410506   5.077859   4.638902
    45  H    8.175737  10.337367   7.556472   6.193418   5.361119
    46  H    7.254120   9.444968   6.944933   5.738685   4.638810
    47  H    4.966220   7.147112   4.872659   3.901751   2.709133
    48  H    7.814212   8.772324   7.191162   7.788423   8.908540
    49  H    6.722764   8.081707   5.922898   6.307652   7.406859
    50  H    8.034692   9.176039   7.146122   7.551161   8.762074
                   21         22         23         24         25
    21  C    0.000000
    22  C    1.381955   0.000000
    23  C    2.510547   3.785192   0.000000
    24  C    3.662246   4.839392   1.392532   0.000000
    25  C    4.839326   6.103525   2.414532   1.384378   0.000000
    26  C    5.144053   6.497001   2.794941   2.401226   1.384988
    27  C    4.401703   5.760544   2.414517   2.764287   2.392878
    28  C    3.060930   4.399088   1.392574   2.392485   2.764325
    29  O    8.364481   7.825539   8.770408   9.088434  10.163599
    30  C    8.796481   8.388283   9.000224   9.352298  10.317231
    31  H    4.392526   3.310446   6.290869   7.340462   8.610886
    32  H    4.524273   3.402241   6.218109   6.886198   8.262442
    33  H    6.892774   5.939206   8.375275   9.301224  10.520856
    34  H    7.405081   6.323437   8.825107   9.297786  10.643246
    35  H    8.120201   7.353151   8.896612   9.145871  10.368425
    36  H    7.600868   6.971894   8.399794   9.103317  10.197217
    37  H    7.732558   6.444593   9.666273  10.488845  11.842092
    38  H    4.081652   2.796753   6.387369   7.202804   8.524050
    39  H    3.829428   3.364918   4.635207   5.069501   6.402688
    40  H    3.364732   3.835962   2.714203   2.852107   4.084374
    41  H    1.075255   2.125111   2.713759   3.908483   4.880900
    42  H    2.121531   1.074608   4.631415   5.735717   6.939952
    43  H    3.904259   4.877706   2.138886   1.075514   2.131675
    44  H    5.741561   6.948454   3.384950   2.132781   1.075854
    45  H    6.195264   7.556715   3.870564   3.376675   2.139183
    46  H    5.077912   6.407490   3.384900   3.840090   3.370023
    47  H    2.848069   4.076336   2.139132   3.369704   3.839703
    48  H    9.411299   8.922088   9.772704  10.222387  11.199501
    49  H    8.052708   7.753537   8.150399   8.552281   9.477593
    50  H    9.494324   9.174433   9.471077   9.686863  10.572553
                   26         27         28         29         30
    26  C    0.000000
    27  C    1.385021   0.000000
    28  C    2.401250   1.384350   0.000000
    29  O   10.893701  10.636902   9.614623   0.000000
    30  C   10.921801  10.628125   9.694005   1.401949   0.000000
    31  H    8.969082   8.140949   6.783164   5.913121   6.420327
    32  H    8.984062   8.491358   7.159228   5.418908   6.377872
    33  H   10.904668  10.135490   8.863006   4.542166   4.873553
    34  H   11.489546  11.120076   9.839934   4.448402   5.720929
    35  H   11.281752  11.088909   9.955047   2.506748   3.908203
    36  H   10.636821  10.048952   8.936848   2.714623   2.562544
    37  H   12.425955  11.750465  10.385304   6.056783   6.960123
    38  H    9.094197   8.471275   7.140374   8.186173   9.075277
    39  H    7.233429   6.942110   5.735585   4.921322   5.689618
    40  H    4.958093   4.881207   3.908588   6.287246   6.678537
    41  H    4.957222   4.082647   2.850114   9.390624   9.769784
    42  H    7.226458   6.391607   5.058696   8.527277   9.105376
    43  H    3.372206   3.839617   3.369550   8.671773   9.059447
    44  H    2.137622   3.370017   3.840140  10.566175  10.744687
    45  H    1.075623   2.139183   3.376670  11.786104  11.755459
    46  H    2.137673   1.075833   2.132688  11.358278  11.262668
    47  H    3.372162   2.131506   1.075523   9.604584   9.648740
    48  H   11.735754  11.353018  10.390197   2.062201   1.085290
    49  H   10.003671   9.667870   8.762506   2.062299   1.085327
    50  H   11.220165  11.039958  10.194740   1.993596   1.079607
                   31         32         33         34         35
    31  H    0.000000
    32  H    2.543348   0.000000
    33  H    2.720137   4.055110   0.000000
    34  H    4.553167   2.922004   4.251666   0.000000
    35  H    5.726589   4.295782   4.910090   2.472315   0.000000
    36  H    4.363858   5.100536   2.436511   4.919080   4.264382
    37  H    3.800019   3.734858   3.215198   2.927024   4.964345
    38  H    3.579720   2.782975   5.909172   5.143401   6.971441
    39  H    3.626717   2.266472   5.015861   4.265311   4.384825
    40  H    5.269808   4.567472   6.824930   6.665598   6.339480
    41  H    5.129815   5.477060   7.689896   8.386305   9.182752
    42  H    3.397932   3.793281   6.117320   6.653657   7.966592
    43  H    7.305428   6.486871   9.199722   8.736051   8.529820
    44  H    9.443047   8.884372  11.282232  11.122554  10.716348
    45  H   10.016877  10.052851  11.909969  12.530222  12.246170
    46  H    8.666500   9.259739  10.630291  11.922053  11.927360
    47  H    6.264012   6.989781   8.375930   9.728019   9.998231
    48  H    6.621521   6.842275   4.682192   6.006769   4.409056
    49  H    5.956498   6.143343   4.691621   6.003155   4.414666
    50  H    7.411889   7.196011   5.948819   6.440139   4.354339
                   36         37         38         39         40
    36  H    0.000000
    37  H    5.130516   0.000000
    38  H    7.510576   4.938618   0.000000
    39  H    5.082583   5.736607   4.274069   0.000000
    40  H    6.466899   8.066356   5.825576   2.436915   0.000000
    41  H    8.494266   8.518253   4.622355   4.904523   4.260183
    42  H    7.469979   6.356976   2.431977   4.265327   4.910278
    43  H    8.961832  10.171722   6.949931   4.605620   2.501625
    44  H   10.839731  12.524459   9.225125   6.944164   4.619029
    45  H   11.562928  13.491957  10.148525   8.267736   5.947559
    46  H   10.582659  12.367809   9.141005   7.810315   5.832482
    47  H    8.631936   9.974073   6.845734   5.823583   4.342893
    48  H    2.369961   6.870675   9.487023   6.434937   7.552623
    49  H    2.368913   7.093243   8.736007   5.245849   5.975449
    50  H    3.636702   7.915327   9.923210   6.312717   7.088841
                   41         42         43         44         45
    41  H    0.000000
    42  H    2.426481   0.000000
    43  H    4.342096   5.827439   0.000000
    44  H    5.832002   7.810045   2.448286   0.000000
    45  H    5.946283   8.259860   4.260390   2.466134   0.000000
    46  H    4.616194   6.929411   4.915441   4.262506   2.466171
    47  H    2.497120   4.589601   4.262561   4.915546   4.260269
    48  H   10.356928   9.552150   9.978508  11.678290  12.575775
    49  H    8.987480   8.499071   8.350817   9.952849  10.825588
    50  H   10.474332   9.950318   9.352451  10.908350  11.999726
                   46         47         48         49         50
    46  H    0.000000
    47  H    2.447938   0.000000
    48  H   11.930406  10.252819   0.000000
    49  H   10.264433   8.699415   1.772009   0.000000
    50  H   11.694752  10.238726   1.764462   1.764530   0.000000
 Stoichiometry    C24H20BrNO4
 Framework group  C1[X(C24H20BrNO4)]
 Deg. of freedom   144
 Full point group                 C1      NOp   1
 Largest Abelian subgroup         C1      NOp   1
 Largest concise Abelian subgroup C1      NOp   1
                         Standard orientation:                         
 ---------------------------------------------------------------------
 Center     Atomic      Atomic             Coordinates (Angstroms)
 Number     Number       Type             X           Y           Z
 ---------------------------------------------------------------------
      1          6           0        2.124153    2.381599   -1.059672
      2          6           0        2.497609    1.884857    0.173283
      3          6           0        2.261454    2.654866    1.309815
      4          6           0        1.656593    3.886076    1.207376
      5          6           0        1.262287    4.374302   -0.038656
      6          6           0        1.496031    3.615921   -1.174715
      7          7           0        3.151853    0.624795    0.299725
      8          6           0        2.641921   -0.567641   -0.064230
      9          6           0        3.293777   -1.713805   -0.274732
     10          6           0        1.163735   -0.835553   -0.265967
     11          6           0        2.348373   -2.765810   -0.617772
     12          8           0        1.118805   -2.195368   -0.642014
     13         35           0        5.135872   -1.991662   -0.147933
     14          8           0        2.516141   -3.909811   -0.853677
     15          6           0        0.314556   -0.632055    1.002863
     16          6           0       -1.177905   -0.683114    0.716110
     17          8           0        0.722828   -1.523509    1.996036
     18          6           0       -1.952401    0.448708    0.923600
     19          6           0       -3.316197    0.437215    0.682500
     20          6           0       -3.950169   -0.713934    0.230631
     21          6           0       -3.170642   -1.850318    0.024361
     22          6           0       -1.808868   -1.836740    0.259281
     23          6           0       -5.418217   -0.732891   -0.026718
     24          6           0       -6.308873   -0.169365    0.883401
     25          6           0       -7.672301   -0.185944    0.644042
     26          6           0       -8.170823   -0.766911   -0.510144
     27          6           0       -7.295131   -1.331309   -1.422778
     28          6           0       -5.931778   -1.314358   -1.183184
     29          8           0        0.670010    5.580073   -0.032450
     30          6           0        0.243877    6.157734   -1.236684
     31          1           0        0.764817   -0.239413   -1.076288
     32          1           0        0.539065    0.352020    1.387015
     33          1           0        2.327068    1.809646   -1.947995
     34          1           0        2.553906    2.274290    2.272113
     35          1           0        1.471116    4.488305    2.077066
     36          1           0        1.212657    3.967165   -2.147454
     37          1           0        4.139287    0.637389    0.435107
     38          1           0        0.481783   -2.405282    1.759783
     39          1           0       -1.489988    1.355573    1.274234
     40          1           0       -3.886833    1.335910    0.834573
     41          1           0       -3.636497   -2.760271   -0.309014
     42          1           0       -1.240592   -2.729727    0.073760
     43          1           0       -5.934497    0.265258    1.793168
     44          1           0       -8.344665    0.247914    1.363178
     45          1           0       -9.230195   -0.780589   -0.695908
     46          1           0       -7.671732   -1.779896   -2.325196
     47          1           0       -5.259968   -1.738803   -1.907937
     48          1           0        1.076455    6.321595   -1.913306
     49          1           0       -0.504756    5.543714   -1.727053
     50          1           0       -0.193561    7.109563   -0.975494
 ---------------------------------------------------------------------
 Rotational constants (GHZ):      0.1577355      0.0671655      0.0501085
 Leave Link  202 at Tue Jul 09 03:18:24 2019, MaxMem=   209715200 cpu:         0.0
 (Enter C:\G09W\l301.exe)
 Standard basis: 6-311++G(d,p) (5D, 7F)
 Ernie: Thresh=  0.10000D-02 Tol=  0.10000D-05 Strict=F.
 There are   858 symmetry adapted cartesian basis functions of A   symmetry.
 There are   826 symmetry adapted basis functions of A   symmetry.
   826 basis functions,  1318 primitive gaussians,   858 cartesian basis functions
   119 alpha electrons      119 beta electrons
       nuclear repulsion energy      3197.6968731456 Hartrees.
 IExCor=  402 DFT=T Ex+Corr=B3LYP ExCW=0 ScaHFX=  0.200000
 ScaDFX=  0.800000  0.720000  1.000000  0.810000 ScalE2=  1.000000  1.000000
 IRadAn=      0 IRanWt=     -1 IRanGd=            0 ICorTp=0 IEmpDi=  4
 NAtoms=   50 NActive=   50 NUniq=   50 SFac= 1.00D+00 NAtFMM=   60 NAOKFM=F Big=F
 Integral buffers will be    262144 words long.
 Raffenetti 2 integral format.
 Two-electron integral symmetry is turned on.
 Leave Link  301 at Tue Jul 09 03:18:24 2019, MaxMem=   209715200 cpu:         0.0
 (Enter C:\G09W\l302.exe)
 NPDir=0 NMtPBC=     1 NCelOv=     1 NCel=       1 NClECP=     1 NCelD=      1
         NCelK=      1 NCelE2=     1 NClLst=     1 CellRange=     0.0.
 One-electron integrals computed using PRISM.
 NBasis=   826 RedAO= T EigKep=  1.29D-06  NBF=   826
 NBsUse=   819 1.00D-06 EigRej=  9.57D-07 NBFU=   819
 Precomputing XC quadrature grid using
 IXCGrd= 4 IRadAn=           0 IRanWt=          -1 IRanGd=           0 AccXCQ= 0.00D+00.
 Generated NRdTot=       0 NPtTot=           0 NUsed=           0 NTot=          16
 NSgBfM=   809   809   809   809   815 MxSgAt=    50 MxSgA2=    50.
 Leave Link  302 at Tue Jul 09 03:18:29 2019, MaxMem=   209715200 cpu:         5.0
 (Enter C:\G09W\l303.exe)
 DipDrv:  MaxL=1.
 Leave Link  303 at Tue Jul 09 03:18:30 2019, MaxMem=   209715200 cpu:         0.0
 (Enter C:\G09W\l401.exe)
 ExpMin= 3.50D-02 ExpMax= 4.40D+05 ExpMxC= 1.51D+04 IAcc=3 IRadAn=         5 AccDes= 0.00D+00
 Harris functional with IExCor=  402 and IRadAn=       5 diagonalized for initial guess.
 HarFok:  IExCor=  402 AccDes= 0.00D+00 IRadAn=         5 IDoV= 1 UseB2=F ITyADJ=14
 ICtDFT=  3500011 ScaDFX=  1.000000  1.000000  1.000000  1.000000
 FoFCou: FMM=F IPFlag=           0 FMFlag=      100000 FMFlg1=           0
         NFxFlg=           0 DoJE=T BraDBF=F KetDBF=T FulRan=T
         wScrn=  0.000000 ICntrl=     500 IOpCl=  0 I1Cent=   200000004 NGrid=           0
         NMat0=    1 NMatS0=      1 NMatT0=    0 NMatD0=    1 NMtDS0=    0 NMtDT0=    0
 Petite list used in FoFCou.
 Harris En= -3856.85600896251    
 JPrj=0 DoOrth=F DoCkMO=F.
 Leave Link  401 at Tue Jul 09 03:19:31 2019, MaxMem=   209715200 cpu:        61.0
 (Enter C:\G09W\l502.exe)
 Closed shell SCF:
 Using DIIS extrapolation, IDIIS=  1040.
 Integral symmetry usage will be decided dynamically.
 IVT=     2237408 IEndB=     2237408 NGot=   209715200 MDV=   208231455
 LenX=   208231455 LenY=   207494433
 Requested convergence on RMS density matrix=1.00D-08 within 128 cycles.
 Requested convergence on MAX density matrix=1.00D-06.
 Requested convergence on             energy=1.00D-06.
 No special actions if energy rises.
 Fock matrices will be formed incrementally for  20 cycles.

 Cycle   1  Pass 1  IDiag  1:
 FoFJK:  IHMeth= 1 ICntrl=       0 DoSepK=F KAlg= 0 I1Cent=   0 FoldK=F
 IRaf= 730000000 NMat=   1 IRICut=       1 DoRegI=T DoRafI=F ISym2E= 0.
 FoFCou: FMM=F IPFlag=           0 FMFlag=      100000 FMFlg1=           0
         NFxFlg=           0 DoJE=F BraDBF=F KetDBF=F FulRan=T
         wScrn=  0.000000 ICntrl=       0 IOpCl=  0 I1Cent=           0 NGrid=           0
         NMat0=    1 NMatS0=      1 NMatT0=    0 NMatD0=    1 NMtDS0=    0 NMtDT0=    0
 Symmetry not used in FoFCou.
 E= -3856.00688396764    
 DIIS: error= 6.11D-02 at cycle   1 NSaved=   1.
 NSaved= 1 IEnMin= 1 EnMin= -3856.00688396764     IErMin= 1 ErrMin= 6.11D-02
 ErrMax= 6.11D-02  0.00D+00 EMaxC= 1.00D-01 BMatC= 1.98D+00 BMatP= 1.98D+00
 IDIUse=3 WtCom= 3.89D-01 WtEn= 6.11D-01
 Coeff-Com:  0.100D+01
 Coeff-En:   0.100D+01
 Coeff:      0.100D+01
 Gap=     0.253 Goal=   None    Shift=    0.000
 GapD=    0.253 DampG=1.000 DampE=0.500 DampFc=0.5000 IDamp=-1.
 Damping current iteration by 5.00D-01
 RMSDP=2.67D-02 MaxDP=1.84D+00              OVMax= 2.64D-01

 Cycle   2  Pass 1  IDiag  1:
 RMSU=  1.33D-02    CP:  9.87D-01
 E= -3856.28367541676     Delta-E=       -0.276791449120 Rises=F Damp=T
 DIIS: error= 3.11D-02 at cycle   2 NSaved=   2.
 NSaved= 2 IEnMin= 2 EnMin= -3856.28367541676     IErMin= 2 ErrMin= 3.11D-02
 ErrMax= 3.11D-02  0.00D+00 EMaxC= 1.00D-01 BMatC= 2.66D-01 BMatP= 1.98D+00
 IDIUse=3 WtCom= 6.89D-01 WtEn= 3.11D-01
 Coeff-Com: -0.112D+00 0.111D+01
 Coeff-En:   0.190D+00 0.810D+00
 Coeff:     -0.183D-01 0.102D+01
 Gap=     0.336 Goal=   None    Shift=    0.000
 RMSDP=1.26D-02 MaxDP=1.73D+00 DE=-2.77D-01 OVMax= 1.56D-01

 Cycle   3  Pass 1  IDiag  1:
 RMSU=  6.90D-03    CP:  9.00D-01  2.74D-01
 E= -3856.55479018159     Delta-E=       -0.271114764834 Rises=F Damp=F
 DIIS: error= 1.65D-02 at cycle   3 NSaved=   3.
 NSaved= 3 IEnMin= 3 EnMin= -3856.55479018159     IErMin= 3 ErrMin= 1.65D-02
 ErrMax= 1.65D-02  0.00D+00 EMaxC= 1.00D-01 BMatC= 2.17D-01 BMatP= 2.66D-01
 IDIUse=3 WtCom= 8.35D-01 WtEn= 1.65D-01
 Coeff-Com: -0.164D+00 0.599D+00 0.566D+00
 Coeff-En:   0.000D+00 0.000D+00 0.100D+01
 Coeff:     -0.137D+00 0.500D+00 0.637D+00
 Gap=     0.195 Goal=   None    Shift=    0.000
 RMSDP=6.48D-03 MaxDP=6.57D-01 DE=-2.71D-01 OVMax= 2.09D-01

 Cycle   4  Pass 1  IDiag  1:
 RMSU=  5.60D-03    CP:  9.23D-01  5.02D-01  1.05D+00
 E= -3856.62027083406     Delta-E=       -0.065480652469 Rises=F Damp=F
 DIIS: error= 1.16D-02 at cycle   4 NSaved=   4.
 NSaved= 4 IEnMin= 4 EnMin= -3856.62027083406     IErMin= 4 ErrMin= 1.16D-02
 ErrMax= 1.16D-02  0.00D+00 EMaxC= 1.00D-01 BMatC= 1.21D-01 BMatP= 2.17D-01
 IDIUse=3 WtCom= 8.84D-01 WtEn= 1.16D-01
 Coeff-Com: -0.853D-01 0.227D+00 0.452D+00 0.406D+00
 Coeff-En:   0.000D+00 0.000D+00 0.401D+00 0.599D+00
 Coeff:     -0.754D-01 0.201D+00 0.446D+00 0.429D+00
 Gap=     0.246 Goal=   None    Shift=    0.000
 RMSDP=4.87D-03 MaxDP=6.48D-01 DE=-6.55D-02 OVMax= 9.39D-02

 Cycle   5  Pass 1  IDiag  1:
 RMSU=  2.16D-03    CP:  8.65D-01  5.29D-01  8.48D-01  4.62D-01
 E= -3856.71530673776     Delta-E=       -0.095035903697 Rises=F Damp=F
 DIIS: error= 1.79D-03 at cycle   5 NSaved=   5.
 NSaved= 5 IEnMin= 5 EnMin= -3856.71530673776     IErMin= 5 ErrMin= 1.79D-03
 ErrMax= 1.79D-03  0.00D+00 EMaxC= 1.00D-01 BMatC= 3.02D-03 BMatP= 1.21D-01
 IDIUse=3 WtCom= 9.82D-01 WtEn= 1.79D-02
 Coeff-Com: -0.225D-01 0.545D-01 0.157D+00 0.217D+00 0.594D+00
 Coeff-En:   0.000D+00 0.000D+00 0.000D+00 0.000D+00 0.100D+01
 Coeff:     -0.221D-01 0.535D-01 0.155D+00 0.213D+00 0.601D+00
 Gap=     0.187 Goal=   None    Shift=    0.000
 RMSDP=1.05D-03 MaxDP=8.14D-02 DE=-9.50D-02 OVMax= 1.58D-02

 Cycle   6  Pass 1  IDiag  1:
 RMSU=  6.30D-04    CP:  8.68D-01  5.06D-01  8.76D-01  5.24D-01  6.95D-01
 E= -3856.71757151938     Delta-E=       -0.002264781628 Rises=F Damp=F
 DIIS: error= 6.32D-04 at cycle   6 NSaved=   6.
 NSaved= 6 IEnMin= 6 EnMin= -3856.71757151938     IErMin= 6 ErrMin= 6.32D-04
 ErrMax= 6.32D-04  0.00D+00 EMaxC= 1.00D-01 BMatC= 5.47D-04 BMatP= 3.02D-03
 IDIUse=3 WtCom= 9.94D-01 WtEn= 6.32D-03
 Coeff-Com: -0.264D-02 0.505D-02 0.292D-01 0.686D-01 0.371D+00 0.528D+00
 Coeff-En:   0.000D+00 0.000D+00 0.000D+00 0.000D+00 0.140D+00 0.860D+00
 Coeff:     -0.262D-02 0.502D-02 0.290D-01 0.681D-01 0.370D+00 0.531D+00
 Gap=     0.185 Goal=   None    Shift=    0.000
 RMSDP=5.26D-04 MaxDP=5.52D-02 DE=-2.26D-03 OVMax= 6.53D-03

 Cycle   7  Pass 1  IDiag  1:
 RMSU=  1.80D-04    CP:  8.72D-01  5.01D-01  9.16D-01  5.39D-01  7.14D-01
                    CP:  4.59D-01
 E= -3856.71802056365     Delta-E=       -0.000449044270 Rises=F Damp=F
 DIIS: error= 2.26D-04 at cycle   7 NSaved=   7.
 NSaved= 7 IEnMin= 7 EnMin= -3856.71802056365     IErMin= 7 ErrMin= 2.26D-04
 ErrMax= 2.26D-04  0.00D+00 EMaxC= 1.00D-01 BMatC= 4.29D-05 BMatP= 5.47D-04
 IDIUse=3 WtCom= 9.98D-01 WtEn= 2.26D-03
 Coeff-Com: -0.532D-04-0.310D-03 0.372D-02 0.169D-01 0.150D+00 0.289D+00
 Coeff-Com:  0.541D+00
 Coeff-En:   0.000D+00 0.000D+00 0.000D+00 0.000D+00 0.000D+00 0.161D-01
 Coeff-En:   0.984D+00
 Coeff:     -0.531D-04-0.309D-03 0.371D-02 0.169D-01 0.149D+00 0.289D+00
 Coeff:      0.542D+00
 Gap=     0.185 Goal=   None    Shift=    0.000
 RMSDP=1.34D-04 MaxDP=1.45D-02 DE=-4.49D-04 OVMax= 2.04D-03

 Cycle   8  Pass 1  IDiag  1:
 RMSU=  6.85D-05    CP:  8.71D-01  5.05D-01  9.06D-01  5.35D-01  7.17D-01
                    CP:  5.06D-01  6.34D-01
 E= -3856.71805384184     Delta-E=       -0.000033278187 Rises=F Damp=F
 DIIS: error= 1.21D-04 at cycle   8 NSaved=   8.
 NSaved= 8 IEnMin= 8 EnMin= -3856.71805384184     IErMin= 8 ErrMin= 1.21D-04
 ErrMax= 1.21D-04  0.00D+00 EMaxC= 1.00D-01 BMatC= 1.16D-05 BMatP= 4.29D-05
 IDIUse=3 WtCom= 9.99D-01 WtEn= 1.21D-03
 Coeff-Com:  0.412D-03-0.982D-03-0.182D-02 0.833D-03 0.500D-01 0.124D+00
 Coeff-Com:  0.369D+00 0.459D+00
 Coeff-En:   0.000D+00 0.000D+00 0.000D+00 0.000D+00 0.000D+00 0.000D+00
 Coeff-En:   0.210D+00 0.790D+00
 Coeff:      0.412D-03-0.981D-03-0.182D-02 0.832D-03 0.499D-01 0.124D+00
 Coeff:      0.369D+00 0.459D+00
 Gap=     0.185 Goal=   None    Shift=    0.000
 RMSDP=6.37D-05 MaxDP=6.54D-03 DE=-3.33D-05 OVMax= 7.87D-04

 Cycle   9  Pass 1  IDiag  1:
 RMSU=  2.04D-05    CP:  8.70D-01  5.04D-01  9.04D-01  5.33D-01  7.29D-01
                    CP:  5.20D-01  6.90D-01  5.96D-01
 E= -3856.71806478744     Delta-E=       -0.000010945600 Rises=F Damp=F
 DIIS: error= 1.80D-05 at cycle   9 NSaved=   9.
 NSaved= 9 IEnMin= 9 EnMin= -3856.71806478744     IErMin= 9 ErrMin= 1.80D-05
 ErrMax= 1.80D-05  0.00D+00 EMaxC= 1.00D-01 BMatC= 3.36D-07 BMatP= 1.16D-05
 IDIUse=1 WtCom= 1.00D+00 WtEn= 0.00D+00
 Coeff-Com:  0.231D-03-0.513D-03-0.888D-03-0.450D-03 0.168D-01 0.443D-01
 Coeff-Com:  0.144D+00 0.224D+00 0.573D+00
 Coeff:      0.231D-03-0.513D-03-0.888D-03-0.450D-03 0.168D-01 0.443D-01
 Coeff:      0.144D+00 0.224D+00 0.573D+00
 Gap=     0.185 Goal=   None    Shift=    0.000
 RMSDP=9.09D-06 MaxDP=9.69D-04 DE=-1.09D-05 OVMax= 2.03D-04

 Cycle  10  Pass 1  IDiag  1:
 RMSU=  4.74D-06    CP:  8.70D-01  5.05D-01  9.04D-01  5.34D-01  7.27D-01
                    CP:  5.24D-01  6.93D-01  6.13D-01  7.45D-01
 E= -3856.71806504058     Delta-E=       -0.000000253143 Rises=F Damp=F
 DIIS: error= 5.84D-06 at cycle  10 NSaved=  10.
 NSaved=10 IEnMin=10 EnMin= -3856.71806504058     IErMin=10 ErrMin= 5.84D-06
 ErrMax= 5.84D-06  0.00D+00 EMaxC= 1.00D-01 BMatC= 6.62D-08 BMatP= 3.36D-07
 IDIUse=1 WtCom= 1.00D+00 WtEn= 0.00D+00
 Coeff-Com:  0.787D-04-0.181D-03-0.262D-03-0.478D-03 0.272D-02 0.880D-02
 Coeff-Com:  0.346D-01 0.711D-01 0.347D+00 0.537D+00
 Coeff:      0.787D-04-0.181D-03-0.262D-03-0.478D-03 0.272D-02 0.880D-02
 Coeff:      0.346D-01 0.711D-01 0.347D+00 0.537D+00
 Gap=     0.185 Goal=   None    Shift=    0.000
 RMSDP=3.95D-06 MaxDP=3.91D-04 DE=-2.53D-07 OVMax= 8.78D-05

 Cycle  11  Pass 1  IDiag  1:
 RMSU=  1.65D-06    CP:  8.70D-01  5.04D-01  9.04D-01  5.33D-01  7.27D-01
                    CP:  5.22D-01  6.97D-01  6.16D-01  7.63D-01  8.19D-01
 E= -3856.71806509747     Delta-E=       -0.000000056884 Rises=F Damp=F
 DIIS: error= 1.45D-06 at cycle  11 NSaved=  11.
 NSaved=11 IEnMin=11 EnMin= -3856.71806509747     IErMin=11 ErrMin= 1.45D-06
 ErrMax= 1.45D-06  0.00D+00 EMaxC= 1.00D-01 BMatC= 3.83D-09 BMatP= 6.62D-08
 IDIUse=1 WtCom= 1.00D+00 WtEn= 0.00D+00
 Coeff-Com:  0.234D-04-0.575D-04-0.848D-04-0.221D-03 0.369D-03 0.188D-02
 Coeff-Com:  0.952D-02 0.234D-01 0.149D+00 0.279D+00 0.537D+00
 Coeff:      0.234D-04-0.575D-04-0.848D-04-0.221D-03 0.369D-03 0.188D-02
 Coeff:      0.952D-02 0.234D-01 0.149D+00 0.279D+00 0.537D+00
 Gap=     0.185 Goal=   None    Shift=    0.000
 RMSDP=9.79D-07 MaxDP=8.97D-05 DE=-5.69D-08 OVMax= 1.89D-05

 Cycle  12  Pass 1  IDiag  1:
 RMSU=  5.59D-07    CP:  8.70D-01  5.04D-01  9.04D-01  5.33D-01  7.27D-01
                    CP:  5.22D-01  6.96D-01  6.21D-01  7.82D-01  8.37D-01
                    CP:  6.77D-01
 E= -3856.71806510000     Delta-E=       -0.000000002534 Rises=F Damp=F
 DIIS: error= 6.03D-07 at cycle  12 NSaved=  12.
 NSaved=12 IEnMin=12 EnMin= -3856.71806510000     IErMin=12 ErrMin= 6.03D-07
 ErrMax= 6.03D-07  0.00D+00 EMaxC= 1.00D-01 BMatC= 5.97D-10 BMatP= 3.83D-09
 IDIUse=1 WtCom= 1.00D+00 WtEn= 0.00D+00
 Coeff-Com: -0.575D-06 0.159D-06-0.116D-04-0.373D-04-0.291D-03-0.545D-03
 Coeff-Com: -0.955D-03 0.160D-03 0.247D-01 0.564D-01 0.288D+00 0.633D+00
 Coeff:     -0.575D-06 0.159D-06-0.116D-04-0.373D-04-0.291D-03-0.545D-03
 Coeff:     -0.955D-03 0.160D-03 0.247D-01 0.564D-01 0.288D+00 0.633D+00
 Gap=     0.185 Goal=   None    Shift=    0.000
 RMSDP=3.53D-07 MaxDP=2.63D-05 DE=-2.53D-09 OVMax= 7.14D-06

 Cycle  13  Pass 1  IDiag  1:
 RMSU=  2.27D-07    CP:  8.70D-01  5.04D-01  9.04D-01  5.33D-01  7.27D-01
                    CP:  5.22D-01  6.96D-01  6.21D-01  7.85D-01  8.39D-01
                    CP:  7.60D-01  8.21D-01
 E= -3856.71806509998     Delta-E=        0.000000000022 Rises=F Damp=F
 DIIS: error= 2.28D-07 at cycle  13 NSaved=  13.
 NSaved=13 IEnMin=12 EnMin= -3856.71806510000     IErMin=13 ErrMin= 2.28D-07
 ErrMax= 2.28D-07  0.00D+00 EMaxC= 1.00D-01 BMatC= 5.47D-11 BMatP= 5.97D-10
 IDIUse=1 WtCom= 1.00D+00 WtEn= 0.00D+00
 Coeff-Com: -0.151D-05 0.323D-05-0.421D-05-0.462D-05-0.168D-03-0.384D-03
 Coeff-Com: -0.104D-02-0.145D-02 0.319D-02 0.103D-01 0.117D+00 0.335D+00
 Coeff-Com:  0.538D+00
 Coeff:     -0.151D-05 0.323D-05-0.421D-05-0.462D-05-0.168D-03-0.384D-03
 Coeff:     -0.104D-02-0.145D-02 0.319D-02 0.103D-01 0.117D+00 0.335D+00
 Coeff:      0.538D+00
 Gap=     0.185 Goal=   None    Shift=    0.000
 RMSDP=1.23D-07 MaxDP=1.08D-05 DE= 2.18D-11 OVMax= 1.93D-06

 Cycle  14  Pass 1  IDiag  1:
 RMSU=  7.10D-08    CP:  8.70D-01  5.04D-01  9.04D-01  5.33D-01  7.27D-01
                    CP:  5.22D-01  6.96D-01  6.21D-01  7.84D-01  8.41D-01
                    CP:  7.31D-01  8.77D-01  7.11D-01
 E= -3856.71806510060     Delta-E=       -0.000000000618 Rises=F Damp=F
 DIIS: error= 9.53D-08 at cycle  14 NSaved=  14.
 NSaved=14 IEnMin=14 EnMin= -3856.71806510060     IErMin=14 ErrMin= 9.53D-08
 ErrMax= 9.53D-08  0.00D+00 EMaxC= 1.00D-01 BMatC= 6.55D-12 BMatP= 5.47D-11
 IDIUse=1 WtCom= 1.00D+00 WtEn= 0.00D+00
 Coeff-Com: -0.810D-06 0.178D-05-0.117D-05 0.198D-05-0.641D-04-0.158D-03
 Coeff-Com: -0.473D-03-0.864D-03-0.123D-02-0.117D-02 0.313D-01 0.105D+00
 Coeff-Com:  0.301D+00 0.567D+00
 Coeff:     -0.810D-06 0.178D-05-0.117D-05 0.198D-05-0.641D-04-0.158D-03
 Coeff:     -0.473D-03-0.864D-03-0.123D-02-0.117D-02 0.313D-01 0.105D+00
 Coeff:      0.301D+00 0.567D+00
 Gap=     0.185 Goal=   None    Shift=    0.000
 RMSDP=4.25D-08 MaxDP=4.43D-06 DE=-6.18D-10 OVMax= 7.92D-07

 Cycle  15  Pass 1  IDiag  1:
 RMSU=  2.10D-08    CP:  8.70D-01  5.04D-01  9.04D-01  5.33D-01  7.27D-01
                    CP:  5.22D-01  6.96D-01  6.21D-01  7.83D-01  8.43D-01
                    CP:  7.40D-01  8.63D-01  7.29D-01  7.48D-01
 E= -3856.71806510093     Delta-E=       -0.000000000328 Rises=F Damp=F
 DIIS: error= 4.38D-08 at cycle  15 NSaved=  15.
 NSaved=15 IEnMin=15 EnMin= -3856.71806510093     IErMin=15 ErrMin= 4.38D-08
 ErrMax= 4.38D-08  0.00D+00 EMaxC= 1.00D-01 BMatC= 1.18D-12 BMatP= 6.55D-12
 IDIUse=1 WtCom= 1.00D+00 WtEn= 0.00D+00
 Coeff-Com: -0.389D-06 0.845D-06-0.844D-07 0.151D-05-0.234D-04-0.609D-04
 Coeff-Com: -0.186D-03-0.378D-03-0.970D-03-0.163D-02 0.799D-02 0.300D-01
 Coeff-Com:  0.130D+00 0.352D+00 0.483D+00
 Coeff:     -0.389D-06 0.845D-06-0.844D-07 0.151D-05-0.234D-04-0.609D-04
 Coeff:     -0.186D-03-0.378D-03-0.970D-03-0.163D-02 0.799D-02 0.300D-01
 Coeff:      0.130D+00 0.352D+00 0.483D+00
 Gap=     0.185 Goal=   None    Shift=    0.000
 RMSDP=1.50D-08 MaxDP=1.25D-06 DE=-3.28D-10 OVMax= 3.03D-07

 Cycle  16  Pass 1  IDiag  1:
 RMSU=  6.60D-09    CP:  8.70D-01  5.04D-01  9.04D-01  5.33D-01  7.27D-01
                    CP:  5.22D-01  6.96D-01  6.21D-01  7.84D-01  8.43D-01
                    CP:  7.40D-01  8.66D-01  7.50D-01  8.28D-01  7.54D-01
 E= -3856.71806510080     Delta-E=        0.000000000121 Rises=F Damp=F
 DIIS: error= 9.51D-09 at cycle  16 NSaved=  16.
 NSaved=16 IEnMin=15 EnMin= -3856.71806510093     IErMin=16 ErrMin= 9.51D-09
 ErrMax= 9.51D-09  0.00D+00 EMaxC= 1.00D-01 BMatC= 1.01D-13 BMatP= 1.18D-12
 IDIUse=1 WtCom= 1.00D+00 WtEn= 0.00D+00
 Coeff-Com: -0.986D-07 0.216D-06 0.164D-06 0.451D-06-0.261D-05-0.902D-05
 Coeff-Com: -0.312D-04-0.809D-04-0.393D-03-0.863D-03-0.543D-03 0.536D-03
 Coeff-Com:  0.272D-01 0.108D+00 0.251D+00 0.615D+00
 Coeff:     -0.986D-07 0.216D-06 0.164D-06 0.451D-06-0.261D-05-0.902D-05
 Coeff:     -0.312D-04-0.809D-04-0.393D-03-0.863D-03-0.543D-03 0.536D-03
 Coeff:      0.272D-01 0.108D+00 0.251D+00 0.615D+00
 Gap=     0.185 Goal=   None    Shift=    0.000
 RMSDP=8.69D-09 MaxDP=1.25D-06 DE= 1.21D-10 OVMax= 9.40D-08

 Cycle  17  Pass 1  IDiag  1:
 RMSU=  3.47D-09    CP:  8.70D-01  5.04D-01  9.04D-01  5.33D-01  7.27D-01
                    CP:  5.22D-01  6.96D-01  6.21D-01  7.84D-01  8.43D-01
                    CP:  7.41D-01  8.67D-01  7.54D-01  8.17D-01  7.57D-01
                    CP:  8.09D-01
 E= -3856.71806510113     Delta-E=       -0.000000000322 Rises=F Damp=F
 DIIS: error= 5.03D-09 at cycle  17 NSaved=  17.
 NSaved=17 IEnMin=17 EnMin= -3856.71806510113     IErMin=17 ErrMin= 5.03D-09
[...]
   589. RY*(  17) C  27                  0.00001     1.47015   
   590. RY*(   1) C  28                  0.00548     1.14146   
   591. RY*(   2) C  28                  0.00202     1.09584   
   592. RY*(   3) C  28                  0.00086     0.81570   
   593. RY*(   4) C  28                  0.00079     0.68632   
   594. RY*(   5) C  28                  0.00063     1.63561   
   595. RY*(   6) C  28                  0.00027     1.52182   
   596. RY*(   7) C  28                  0.00015     2.32027   
   597. RY*(   8) C  28                  0.00009     2.86681   
   598. RY*(   9) C  28                  0.00006     1.45385   
   599. RY*(  10) C  28                  0.00007     1.89810   
   600. RY*(  11) C  28                  0.00004     1.56425   
   601. RY*(  12) C  28                  0.00002     2.01235   
   602. RY*(  13) C  28                  0.00001     1.48816   
   603. RY*(  14) C  28                  0.00000     2.80612   
   604. RY*(  15) C  28                  0.00001     1.61328   
   605. RY*(  16) C  28                  0.00001     2.06976   
   606. RY*(  17) C  28                  0.00000    21.03159   
   607. RY*(   1) O  29                  0.00450     0.62541   
   608. RY*(   2) O  29                  0.00362     0.72119   
   609. RY*(   3) O  29                  0.00097     1.23538   
   610. RY*(   4) O  29                  0.00067     0.66082   
   611. RY*(   5) O  29                  0.00028     1.73090   
   612. RY*(   6) O  29                  0.00019     2.52887   
   613. RY*(   7) O  29                  0.00013     1.33149   
   614. RY*(   8) O  29                  0.00006     1.34014   
   615. RY*(   9) O  29                  0.00004     2.69265   
   616. RY*(  10) O  29                  0.00004     1.12271   
   617. RY*(  11) O  29                  0.00002     5.19990   
   618. RY*(  12) O  29                  0.00000     5.08003   
   619. RY*(  13) O  29                  0.00000     4.94295   
   620. RY*(  14) O  29                  0.00001     3.06211   
   621. RY*(  15) O  29                  0.00000     3.07742   
   622. RY*(  16) O  29                  0.00000    49.09707   
   623. RY*(  17) O  29                  0.00001     2.95953   
   624. RY*(   1) C  30                  0.00291     1.33297   
   625. RY*(   2) C  30                  0.00207     1.40109   
   626. RY*(   3) C  30                  0.00151     0.88180   
   627. RY*(   4) C  30                  0.00047     1.29772   
   628. RY*(   5) C  30                  0.00034     0.58050   
   629. RY*(   6) C  30                  0.00013     2.01844   
   630. RY*(   7) C  30                  0.00000    22.97172   
   631. RY*(   8) C  30                  0.00001     1.39450   
   632. RY*(   9) C  30                  0.00001     2.69904   
   633. RY*(  10) C  30                  0.00001     1.16784   
   634. RY*(  11) C  30                  0.00001     0.86878   
   635. RY*(  12) C  30                  0.00001     2.26577   
   636. RY*(  13) C  30                  0.00000     2.04858   
   637. RY*(  14) C  30                  0.00000     1.94104   
   638. RY*(  15) C  30                  0.00000     2.21759   
   639. RY*(  16) C  30                  0.00001     1.75572   
   640. RY*(  17) C  30                  0.00001     1.82704   
   641. RY*(   1) H  31                  0.00133     0.95799   
   642. RY*(   2) H  31                  0.00027     1.79981   
   643. RY*(   3) H  31                  0.00019     2.09598   
   644. RY*(   4) H  31                  0.00012     2.08019   
   645. RY*(   5) H  31                  0.00009     1.68026   
   646. RY*(   6) H  31                  0.00006     1.45814   
   647. RY*(   1) H  32                  0.00239     0.58272   
   648. RY*(   2) H  32                  0.00024     1.92286   
   649. RY*(   3) H  32                  0.00020     1.45268   
   650. RY*(   4) H  32                  0.00018     1.68138   
   651. RY*(   5) H  32                  0.00013     2.41440   
   652. RY*(   6) H  32                  0.00010     1.96793   
   653. RY*(   1) H  33                  0.00113     0.52368   
   654. RY*(   2) H  33                  0.00038     1.73793   
   655. RY*(   3) H  33                  0.00025     1.85345   
   656. RY*(   4) H  33                  0.00011     1.95861   
   657. RY*(   5) H  33                  0.00006     0.77507   
   658. RY*(   6) H  33                  0.00004     2.61156   
   659. RY*(   1) H  34                  0.00078     0.99645   
   660. RY*(   2) H  34                  0.00021     1.76107   
   661. RY*(   3) H  34                  0.00016     1.86575   
   662. RY*(   4) H  34                  0.00012     2.00161   
   663. RY*(   5) H  34                  0.00005     0.24824   
   664. RY*(   6) H  34                  0.00004     2.46425   
   665. RY*(   1) H  35                  0.00087     0.94452   
   666. RY*(   2) H  35                  0.00021     2.03020   
   667. RY*(   3) H  35                  0.00016     1.59161   
   668. RY*(   4) H  35                  0.00013     1.88263   
   669. RY*(   5) H  35                  0.00003     0.44303   
   670. RY*(   6) H  35                  0.00003     2.39996   
   671. RY*(   1) H  36                  0.00084     0.71630   
   672. RY*(   2) H  36                  0.00024     1.49410   
   673. RY*(   3) H  36                  0.00019     2.24494   
   674. RY*(   4) H  36                  0.00010     0.78533   
   675. RY*(   5) H  36                  0.00010     2.12007   
   676. RY*(   6) H  36                  0.00004     2.24311   
   677. RY*(   1) H  37                  0.00153     0.91183   
   678. RY*(   2) H  37                  0.00070     1.66311   
   679. RY*(   3) H  37                  0.00038     1.81568   
   680. RY*(   4) H  37                  0.00020     2.32290   
   681. RY*(   5) H  37                  0.00007     1.88186   
   682. RY*(   6) H  37                  0.00005     1.52493   
   683. RY*(   1) H  38                  0.00178     1.95762   
   684. RY*(   2) H  38                  0.00126     1.96637   
   685. RY*(   3) H  38                  0.00071     1.69624   
   686. RY*(   4) H  38                  0.00025     1.34092   
   687. RY*(   5) H  38                  0.00011     0.39333   
   688. RY*(   6) H  38                  0.00001     2.46269   
   689. RY*(   1) H  39                  0.00087     1.09795   
   690. RY*(   2) H  39                  0.00022     1.87469   
   691. RY*(   3) H  39                  0.00019     1.66703   
   692. RY*(   4) H  39                  0.00013     2.01399   
   693. RY*(   5) H  39                  0.00004     2.47372   
   694. RY*(   1) H  40                  0.00151     0.46160   
   695. RY*(   2) H  40                  0.00031     2.37249   
   696. RY*(   3) H  40                  0.00019     1.65829   
   697. RY*(   4) H  40                  0.00013     1.74849   
   698. RY*(   5) H  40                  0.00007     0.76691   
   699. RY*(   6) H  40                  0.00004     2.40383   
   700. RY*(   1) H  41                  0.00188     0.58423   
   701. RY*(   2) H  41                  0.00033     2.33343   
   702. RY*(   3) H  41                  0.00018     1.63849   
   703. RY*(   4) H  41                  0.00012     2.02829   
   704. RY*(   5) H  41                  0.00004     2.62450   
   705. RY*(   6) H  41                  0.00004     0.34191   
   706. RY*(   1) H  42                  0.00099     1.37585   
   707. RY*(   2) H  42                  0.00024     1.59153   
   708. RY*(   3) H  42                  0.00019     1.44127   
   709. RY*(   4) H  42                  0.00013     1.93745   
   710. RY*(   5) H  42                  0.00005     2.51701   
   711. RY*(   6) H  42                  0.00006     0.70131   
   712. RY*(   1) H  43                  0.00136     0.46764   
   713. RY*(   2) H  43                  0.00031     2.40384   
   714. RY*(   3) H  43                  0.00019     1.63141   
   715. RY*(   4) H  43                  0.00013     1.99373   
   716. RY*(   5) H  43                  0.00005     0.27282   
   717. RY*(   6) H  43                  0.00004     2.63829   
   718. RY*(   1) H  44                  0.00084     0.65381   
   719. RY*(   2) H  44                  0.00020     2.33132   
   720. RY*(   3) H  44                  0.00019     1.59902   
   721. RY*(   4) H  44                  0.00011     1.96695   
   722. RY*(   5) H  44                  0.00004     2.45847   
   723. RY*(   6) H  44                  0.00002     0.21788   
   724. RY*(   1) H  45                  0.00076     0.67395   
   725. RY*(   2) H  45                  0.00020     1.59253   
   726. RY*(   3) H  45                  0.00019     2.34946   
   727. RY*(   4) H  45                  0.00012     1.96933   
   728. RY*(   5) H  45                  0.00003     2.45907   
   729. RY*(   6) H  45                  0.00001     0.18080   
   730. RY*(   1) H  46                  0.00084     0.65362   
   731. RY*(   2) H  46                  0.00020     2.32676   
   732. RY*(   3) H  46                  0.00019     1.60097   
   733. RY*(   4) H  46                  0.00011     1.96653   
   734. RY*(   5) H  46                  0.00004     2.47832   
   735. RY*(   6) H  46                  0.00002     0.19771   
   736. RY*(   1) H  47                  0.00139     0.46576   
   737. RY*(   2) H  47                  0.00033     2.36396   
   738. RY*(   3) H  47                  0.00019     1.65174   
   739. RY*(   4) H  47                  0.00013     1.99681   
   740. RY*(   5) H  47                  0.00006     0.82986   
   741. RY*(   6) H  47                  0.00004     2.10211   
   742. RY*(   1) H  48                  0.00145     0.44463   
   743. RY*(   2) H  48                  0.00027     1.81822   
   744. RY*(   3) H  48                  0.00015     1.71774   
   745. RY*(   4) H  48                  0.00013     2.05300   
   746. RY*(   5) H  48                  0.00003     0.90116   
   747. RY*(   6) H  48                  0.00002     2.23377   
   748. RY*(   1) H  49                  0.00147     0.44012   
   749. RY*(   2) H  49                  0.00027     1.82176   
   750. RY*(   3) H  49                  0.00015     1.65385   
   751. RY*(   4) H  49                  0.00013     1.97139   
   752. RY*(   5) H  49                  0.00004     0.98635   
   753. RY*(   6) H  49                  0.00002     2.32536   
   754. RY*(   1) H  50                  0.00057     0.45842   
   755. RY*(   2) H  50                  0.00017     0.19433   
   756. RY*(   3) H  50                  0.00013     0.82410   
   757. RY*(   4) H  50                  0.00010     2.21815   
   758. RY*(   5) H  50                  0.00004     0.22820   
   759. RY*(   6) H  50                  0.00001     0.70128   
   760. BD*(   1) C   1 - C   2          0.02721     0.55192   
   761. BD*(   2) C   1 - C   2          0.38641     0.00190  772(v),767(v),122(g),778(r)
                                                    776(v),775(v),207(v),156(v)
   762. BD*(   1) C   1 - C   6          0.01307     0.55469   
   763. BD*(   1) C   1 - H  33          0.01304     0.41454   
   764. BD*(   1) C   2 - C   3          0.02572     0.54087   
   765. BD*(   1) C   2 - N   7          0.03000     0.37906   
   766. BD*(   1) C   3 - C   4          0.01179     0.56940   
   767. BD*(   2) C   3 - C   4          0.31026     0.00899  772(v),761(v),173(g),158(g)
                                                    157(g),174(g)
   768. BD*(   1) C   3 - H  34          0.01243     0.41935   
   769. BD*(   1) C   4 - C   5          0.02275     0.53600   
   770. BD*(   1) C   4 - H  35          0.01222     0.42184   
   771. BD*(   1) C   5 - C   6          0.02895     0.53858   
   772. BD*(   2) C   5 - C   6          0.38513     0.00172  761(v),767(v),207(g),173(v)
                                                    193(g),190(g)
   773. BD*(   1) C   5 - O  29          0.02979     0.34547   
   774. BD*(   1) C   6 - H  36          0.01336     0.41912   
   775. BD*(   1) N   7 - C   8          0.02813     0.46636   
   776. BD*(   1) N   7 - H  37          0.02468     0.36828   
   777. BD*(   1) C   8 - C   9          0.02496     0.59324   
   778. BD*(   2) C   8 - C   9          0.31076     0.00325  787(v),258(g),761(r),783(v)
                                                    784(v),242(g),222(v)
   779. BD*(   1) C   8 - C  10          0.03727     0.36152   
   780. BD*(   1) C   9 - C  11          0.07573     0.44478   
   781. BD*(   1) C   9 -Br  13          0.03142     0.09138   
   782. BD*(   1) C  10 - O  12          0.02795     0.25130   
   783. BD*(   1) C  10 - C  15          0.05242     0.32529   
   784. BD*(   1) C  10 - H  31          0.02689     0.37786   
   785. BD*(   1) C  11 - O  12          0.12380     0.30715  782(g),779(v),291(g),783(v)
                                                    777(v),781(v),297(g),319(g)
   786. BD*(   1) C  11 - O  14          0.01308     0.63735   
   787. BD*(   2) C  11 - O  14          0.28865     0.01557  778(v),292(g),355(g),368(g)
   788. BD*(   1) C  15 - C  16          0.03661     0.39892   
   789. BD*(   1) C  15 - O  17          0.03111     0.27486   
   790. BD*(   1) C  15 - H  32          0.02364     0.38159   
   791. BD*(   1) C  16 - C  18          0.02253     0.56893   
   792. BD*(   2) C  16 - C  18          0.35708     0.02766  803(v),798(v),789(v),424(g)
                                                    783(v),491(v)
   793. BD*(   1) C  16 - C  22          0.02580     0.56725   
   794. BD*(   1) O  17 - H  38          0.00974     0.42373   
   795. BD*(   1) C  18 - C  19          0.01412     0.57660   
   796. BD*(   1) C  18 - H  39          0.01460     0.43075   
   797. BD*(   1) C  19 - C  20          0.02456     0.56146   
   798. BD*(   2) C  19 - C  20          0.35596     0.02910  792(v),803(v),807(v),441(g)
                                                    806(v),475(v)
   799. BD*(   1) C  19 - H  40          0.01396     0.43518   
   800. BD*(   1) C  20 - C  21          0.02504     0.54353   
   801. BD*(   1) C  20 - C  23          0.03162     0.45364   
   802. BD*(   1) C  21 - C  22          0.01540     0.56673   
   803. BD*(   2) C  21 - C  22          0.30883     0.02761  792(v),798(v),475(g),491(g)
                                                    492(g)
   804. BD*(   1) C  21 - H  41          0.01412     0.43979   
   805. BD*(   1) C  22 - H  42          0.01495     0.45249   
   806. BD*(   1) C  23 - C  24          0.02508     0.55351   
   807. BD*(   2) C  23 - C  24          0.36136     0.04222  817(v),812(v),798(v),825(r)
                                                    824(r),524(g),826(r),822(r)
                                                    823(r),797(v)
   808. BD*(   1) C  23 - C  28          0.02510     0.57430   
   809. BD*(   1) C  24 - C  25          0.01514     0.59395   
   810. BD*(   1) C  24 - H  43          0.01403     0.43992   
   811. BD*(   1) C  25 - C  26          0.01635     0.57546   
   812. BD*(   2) C  25 - C  26          0.33587     0.02690  817(v),807(v),825(r),558(g)
                                                    541(g),824(r),826(r),569(g)
   813. BD*(   1) C  25 - H  44          0.01358     0.44128   
   814. BD*(   1) C  26 - C  27          0.01634     0.59540   
   815. BD*(   1) C  26 - H  45          0.01365     0.46453   
   816. BD*(   1) C  27 - C  28          0.01513     0.58636   
   817. BD*(   2) C  27 - C  28          0.32379     0.02734  812(v),807(v),575(g),825(r)
                                                    593(g),824(r),826(r)
   818. BD*(   1) C  27 - H  46          0.01357     0.46212   
   819. BD*(   1) C  28 - H  47          0.01403     0.45890   
   820. BD*(   1) O  29 - C  30          0.00913     0.27656   
   821. BD*(   1) C  30 - H  48          0.01826     2.46107   
   822. BD*(   1) C  30 - H  49          0.01824     4.31591   
   823. BD*(   1) C  30 - H  50          0.00876     2.42586   
       -------------------------------
              Total Lewis  232.56706  ( 97.7173%)
        Valence non-Lewis    4.98494  (  2.0945%)
        Rydberg non-Lewis    0.44801  (  0.1882%)
       -------------------------------
            Total unit  1  238.00000  (100.0000%)
           Charge unit  1    0.00000
 Leave Link  607 at Tue Jul 09 17:02:27 2019, MaxMem=   209715200 cpu:        39.0
 (Enter C:\G09W\l9999.exe)
 1|1|UNPC-CCSC-01038015|FOpt|RB3LYP|6-311++G(d,p)|C24H20Br1N1O4|PERFIL|
 09-Jul-2019|0||#p opt b3lyp/6-311++g(d,p) pop=nbo geom=connectivity||9
 t.log||0,1|C,1.9438629557,2.2727720164,-1.0198066716|C,2.5447141343,1.
 8766734845,0.172616391|C,2.5483412363,2.7616749121,1.2589320087|C,1.95
 53894822,4.0089768811,1.1518273252|C,1.3250257697,4.3931350393,-0.0398
 158094|C,1.3208042183,3.5169786742,-1.1282038063|N,3.1875402458,0.6105
 190703,0.2982779067|C,2.6837265659,-0.6002082707,-0.0393893288|C,3.354
 7997686,-1.7717124693,-0.1507264441|C,1.2131406232,-0.8872746389,-0.27
 71925216|C,2.4410674619,-2.8564387171,-0.4720613348|O,1.1699536102,-2.
 2914481516,-0.5759455564|Br,5.206693769,-2.0161764484,0.0989689616|O,2
 .6210772908,-4.0284050956,-0.644516075|C,0.3127951712,-0.5850302961,0.
 9503909724|C,-1.1741061033,-0.6348767519,0.6375158226|O,0.6774713538,-
 1.4120734397,2.0490032867|C,-1.984734205,0.4389837875,1.0165136701|C,-
 3.3574211703,0.4201501931,0.7898685455|C,-3.9707416981,-0.6797658918,0
 .1753887444|C,-3.154077008,-1.7551362255,-0.2038563229|C,-1.7812078544
 ,-1.73594525,0.0200406997|C,-5.4358759773,-0.706485419,-0.0651794571|C
 ,-6.3329166947,-0.2237952193,0.899379276|C,-7.7068643352,-0.2495951995
 ,0.675070664|C,-8.2139066279,-0.7582984665,-0.5195712528|C,-7.33456483
 38,-1.2417572932,-1.4871238759|C,-5.9607310897,-1.2165207322,-1.262000
 6384|O,0.7556889564,5.6290471744,-0.0379570152|C,0.0997989674,6.081587
 8858,-1.2174651046|H,0.8285315166,-0.3495513704,-1.146424406|H,0.54904
 6437,0.4295623828,1.274855213|H,1.975196441,1.619098077,-1.8834251835|
 H,3.0107189328,2.4595489769,2.1919599846|H,1.9543730192,4.6997841387,1
 .9860325897|H,0.8587525636,3.792342251,-2.0663010932|H,4.1607968494,0.
 612694382,0.5763809792|H,0.445716921,-2.3240361417,1.835033653|H,-1.53
 65598008,1.3050638288,1.4929687338|H,-3.9561568038,1.2776984509,1.0753
 52828|H,-3.6015808098,-2.6299797279,-0.6617130908|H,-1.1824768682,-2.5
 841970063,-0.2889488612|H,-5.9518226011,0.1505106666,1.8428519053|H,-8
 .3826143421,0.119056611,1.4388750697|H,-9.283613945,-0.7789830549,-0.6
 943253833|H,-7.7181708326,-1.6333397008,-2.4227750495|H,-5.2860924741,
 -1.5754222419,-2.0311149439|H,0.7964492702,6.1482927043,-2.0597312358|
 H,-0.7375237011,5.4278343423,-1.4834351343|H,-0.2782737553,7.074876289
 ,-0.9830496346||Version=IA32W-G09RevD.01|State=1-A|HF=-3856.7254736|RM
 SD=7.449e-009|RMSF=4.626e-006|Dipole=-0.9519679,3.0446977,-0.5192859|Q
 uadrupole=5.1591379,-6.5115035,1.3523656,10.9130263,3.6967972,-4.62030
 03|PG=C01 [X(C24H20Br1N1O4)]||@


 Some scientists claim that hydrogen, because it is so
 plentiful, is the basic building block of the universe. 
 I dispute that. I say that stupidity is far more
 abundant than hydrogen, and THAT is the basic building 
 block of the universe.
                   --Frank Zappa
 Job cpu time:       0 days 13 hours 44 minutes  3.0 seconds.
 File lengths (MBytes):  RWF=    400 Int=      0 D2E=      0 Chk=     52 Scr=      1
 Normal termination of Gaussian 09 at Tue Jul 09 17:02:27 2019.
