 Entering Link 1 = C:\G09W\l1.exe PID=     45236.
  
 Copyright (c) 1988,1990,1992,1993,1995,1998,2003,2009,2013,
            Gaussian, Inc.  All Rights Reserved.
  
 This is part of the Gaussian(R) 09 program.  It is based on
 the Gaussian(R) 03 system (copyright 2003, Gaussian, Inc.),
 the Gaussian(R) 98 system (copyright 1998, Gaussian, Inc.),
 the Gaussian(R) 94 system (copyright 1995, Gaussian, Inc.),
 the Gaussian 92(TM) system (copyright 1992, Gaussian, Inc.),
 the Gaussian 90(TM) system (copyright 1990, Gaussian, Inc.),
 the Gaussian 88(TM) system (copyright 1988, Gaussian, Inc.),
 the Gaussian 86(TM) system (copyright 1986, Carnegie Mellon
 University), and the Gaussian 82(TM) system (copyright 1983,
 Carnegie Mellon University). Gaussian is a federally registered
 trademark of Gaussian, Inc.
  
 This software contains proprietary and confidential information,
 including trade secrets, belonging to Gaussian, Inc.
  
 This software is provided under written license and may be
 used, copied, transmitted, or stored only in accord with that
 written license.
  
 The following legend is applicable only to US Government
 contracts under FAR:
  
                    RESTRICTED RIGHTS LEGEND
  
 Use, reproduction and disclosure by the US Government is
 subject to restrictions as set forth in subparagraphs (a)
 and (c) of the Commercial Computer Software - Restricted
 Rights clause in FAR 52.227-19.
  
 Gaussian, Inc.
 340 Quinnipiac St., Bldg. 40, Wallingford CT 06492
  
  
 ---------------------------------------------------------------
 Warning -- This program may not be used in any manner that
 competes with the business of Gaussian, Inc. or will provide
 assistance to any competitor of Gaussian, Inc.  The licensee
 of this program is prohibited from giving any competitor of
 Gaussian, Inc. access to this program.  By using this program,
 the user acknowledges that Gaussian, Inc. is engaged in the
 business of creating and licensing software in the field of
 computational chemistry and represents and warrants to the
 licensee that it is not a competitor of Gaussian, Inc. and that
 it will not use this program in any manner prohibited above.
 ---------------------------------------------------------------
  

 Cite this work as:
 Gaussian 09, Revision D.01,
 M. J. Frisch, G. W. Trucks, H. B. Schlegel, G. E. Scuseria, 
 M. A. Robb, J. R. Cheeseman, G. Scalmani, V. Barone, B. Mennucci, 
 G. A. Petersson, H. Nakatsuji, M. Caricato, X. Li, H. P. Hratchian, 
 A. F. Izmaylov, J. Bloino, G. Zheng, J. L. Sonnenberg, M. Hada, 
 M. Ehara, K. Toyota, R. Fukuda, J. Hasegawa, M. Ishida, T. Nakajima, 
 Y. Honda, O. Kitao, H. Nakai, T. Vreven, J. A. Montgomery, Jr., 
 J. E. Peralta, F. Ogliaro, M. Bearpark, J. J. Heyd, E. Brothers, 
 K. N. Kudin, V. N. Staroverov, T. Keith, R. Kobayashi, J. Normand, 
 K. Raghavachari, A. Rendell, J. C. Burant, S. S. Iyengar, J. Tomasi, 
 M. Cossi, N. Rega, J. M. Millam, M. Klene, J. E. Knox, J. B. Cross, 
 V. Bakken, C. Adamo, J. Jaramillo, R. Gomperts, R. E. Stratmann, 
 O. Yazyev, A. J. Austin, R. Cammi, C. Pomelli, J. W. Ochterski, 
 R. L. Martin, K. Morokuma, V. G. Zakrzewski, G. A. Voth, 
 P. Salvador, J. J. Dannenberg, S. Dapprich, A. D. Daniels, 
 O. Farkas, J. B. Foresman, J. V. Ortiz, J. Cioslowski, 
 and D. J. Fox, Gaussian, Inc., Wallingford CT, 2013.
 
 ******************************************
 Gaussian 09:  IA32W-G09RevD.01 24-Apr-2013
                09-Jul-2019 
 ******************************************
 %nprocshared=4
 Will use up to    4 processors via shared memory.
 %mem=1600MB
 ----------------------------------------------------
 #p opt b3lyp/6-311++g(d,p) pop=nbo geom=connectivity
 ----------------------------------------------------
 1/14=-1,18=20,19=15,26=3,38=1,57=2/1,3;
 2/9=110,12=2,17=6,18=5,40=1/2;
 3/5=4,6=6,7=1111,11=2,16=1,25=1,30=1,71=1,74=-5/1,2,3;
 4//1;
 5/5=2,38=5/2;
 6/7=2,8=2,9=2,10=2,28=1,40=1/1,7;
 7//1,2,3,16;
 1/14=-1,18=20,19=15,26=3/3(2);
 2/9=110/2;
 99//99;
 2/9=110/2;
 3/5=4,6=6,7=1111,11=2,16=1,25=1,30=1,71=1,74=-5/1,2,3;
 4/5=5,16=3,69=1/1;
 5/5=2,38=5/2;
 7//1,2,3,16;
 1/14=-1,18=20,19=15,26=3/3(-5);
 2/9=110/2;
 6/7=2,8=2,9=2,10=2,19=2,28=1,40=1/1,7;
 99/9=1/99;
 Leave Link    1 at Tue Jul 09 17:02:27 2019, MaxMem=   209715200 cpu:         0.0
 (Enter C:\G09W\l101.exe)
 ------
 9u.log
 ------
 Symbolic Z-matrix:
 Charge =  0 Multiplicity = 1
 C                     2.14185   2.52828  -1.28115 
 C                     2.50122   2.11345  -0.01048 
 C                     2.25294   2.95382   1.0694 
 C                     1.64876   4.17967   0.88503 
 C                     1.27263   4.5791   -0.39232 
 C                     1.51793   3.75049  -1.47519 
 N                     3.15519   0.8652    0.2039 
 C                     2.64699  -0.34903  -0.08495 
 C                     3.30091  -1.50468  -0.22287 
 C                     1.1693   -0.63136  -0.27006 
 C                     2.35717  -2.57781  -0.50003 
 O                     1.12697  -2.01186  -0.56115 
 Br                    5.14326  -1.7711   -0.07833 
 O                     2.52718  -3.73394  -0.66366 
 C                     0.31926  -0.35091   0.98343 
 C                    -1.17304  -0.42428   0.70078 
 O                     0.73032  -1.17657   2.03079 
 C                    -1.95134   0.71546   0.83937 
 C                    -3.31514   0.6848    0.60007 
 C                    -3.9454   -0.49388   0.21954 
 C                    -3.16209  -1.6381    0.08258 
 C                    -1.80028  -1.60572   0.31545 
 C                    -5.41343  -0.53342  -0.03545 
 C                    -6.30563   0.08238   0.83858 
 C                    -7.66906   0.04665   0.60135 
 C                    -8.166    -0.60608  -0.51452 
 C                    -7.28875  -1.22293  -1.391 
 C                    -5.9254   -1.18684  -1.15356 
 O                     0.67642   5.77976  -0.51459 
 H                     0.76946  -0.0873   -1.11595 
 H                     0.54094   0.65618   1.30453 
 H                     2.35407   1.89973  -2.12793 
 H                     2.53531   2.63495   2.05676 
 H                     1.45527   4.83493   1.71361 
 H                     1.23727   4.05734  -2.46827 
 H                     4.14295   0.88748   0.33581 
 H                     0.4868   -2.07143   1.85367 
 H                    -1.49209   1.64361   1.13401 
 H                    -3.88864   1.58925   0.69728 
 H                    -3.62496  -2.56827  -0.19438 
 H                    -1.22913  -2.5065    0.18441 
 H                    -5.93247   0.5736    1.71959 
 H                    -8.34261   0.52197   1.29262 
 H                    -9.22537  -0.63457  -0.6986 
 H                    -7.66415  -1.72756  -2.26384 
 H                    -5.25246  -1.65302  -1.85112 
 H                     0.46189   5.96819  -1.41335 
 
 NAtoms=     47 NQM=       47 NQMF=       0 NMMI=      0 NMMIF=      0
                NMic=       0 NMicF=      0.
                    Isotopes and Nuclear Properties:
 (Nuclear quadrupole moments (NQMom) in fm**2, nuclear magnetic moments (NMagM)
  in nuclear magnetons)

  Atom         1           2           3           4           5           6           7           8           9          10
 IAtWgt=          12          12          12          12          12          12          14          12          12          12
 AtmWgt=  12.0000000  12.0000000  12.0000000  12.0000000  12.0000000  12.0000000  14.0030740  12.0000000  12.0000000  12.0000000
 NucSpn=           0           0           0           0           0           0           2           0           0           0
 AtZEff=   0.0000000   0.0000000   0.0000000   0.0000000   0.0000000   0.0000000   0.0000000   0.0000000   0.0000000   0.0000000
 NQMom=    0.0000000   0.0000000   0.0000000   0.0000000   0.0000000   0.0000000   2.0440000   0.0000000   0.0000000   0.0000000
 NMagM=    0.0000000   0.0000000   0.0000000   0.0000000   0.0000000   0.0000000   0.4037610   0.0000000   0.0000000   0.0000000
 AtZNuc=   6.0000000   6.0000000   6.0000000   6.0000000   6.0000000   6.0000000   7.0000000   6.0000000   6.0000000   6.0000000

  Atom        11          12          13          14          15          16          17          18          19          20
 IAtWgt=          12          16          79          16          12          12          16          12          12          12
 AtmWgt=  12.0000000  15.9949146  78.9183361  15.9949146  12.0000000  12.0000000  15.9949146  12.0000000  12.0000000  12.0000000
 NucSpn=           0           0           3           0           0           0           0           0           0           0
 AtZEff=   0.0000000   0.0000000   0.0000000   0.0000000   0.0000000   0.0000000   0.0000000   0.0000000   0.0000000   0.0000000
 NQMom=    0.0000000   0.0000000  31.3000000   0.0000000   0.0000000   0.0000000   0.0000000   0.0000000   0.0000000   0.0000000
 NMagM=    0.0000000   0.0000000   2.1063990   0.0000000   0.0000000   0.0000000   0.0000000   0.0000000   0.0000000   0.0000000
 AtZNuc=   6.0000000   8.0000000  35.0000000   8.0000000   6.0000000   6.0000000   8.0000000   6.0000000   6.0000000   6.0000000

  Atom        21          22          23          24          25          26          27          28          29          30
 IAtWgt=          12          12          12          12          12          12          12          12          16           1
 AtmWgt=  12.0000000  12.0000000  12.0000000  12.0000000  12.0000000  12.0000000  12.0000000  12.0000000  15.9949146   1.0078250
 NucSpn=           0           0           0           0           0           0           0           0           0           1
 AtZEff=   0.0000000   0.0000000   0.0000000   0.0000000   0.0000000   0.0000000   0.0000000   0.0000000   0.0000000   0.0000000
 NQMom=    0.0000000   0.0000000   0.0000000   0.0000000   0.0000000   0.0000000   0.0000000   0.0000000   0.0000000   0.0000000
 NMagM=    0.0000000   0.0000000   0.0000000   0.0000000   0.0000000   0.0000000   0.0000000   0.0000000   0.0000000   2.7928460
 AtZNuc=   6.0000000   6.0000000   6.0000000   6.0000000   6.0000000   6.0000000   6.0000000   6.0000000   8.0000000   1.0000000

  Atom        31          32          33          34          35          36          37          38          39          40
 IAtWgt=           1           1           1           1           1           1           1           1           1           1
 AtmWgt=   1.0078250   1.0078250   1.0078250   1.0078250   1.0078250   1.0078250   1.0078250   1.0078250   1.0078250   1.0078250
 NucSpn=           1           1           1           1           1           1           1           1           1           1
 AtZEff=   0.0000000   0.0000000   0.0000000   0.0000000   0.0000000   0.0000000   0.0000000   0.0000000   0.0000000   0.0000000
 NQMom=    0.0000000   0.0000000   0.0000000   0.0000000   0.0000000   0.0000000   0.0000000   0.0000000   0.0000000   0.0000000
 NMagM=    2.7928460   2.7928460   2.7928460   2.7928460   2.7928460   2.7928460   2.7928460   2.7928460   2.7928460   2.7928460
 AtZNuc=   1.0000000   1.0000000   1.0000000   1.0000000   1.0000000   1.0000000   1.0000000   1.0000000   1.0000000   1.0000000

  Atom        41          42          43          44          45          46          47
 IAtWgt=           1           1           1           1           1           1           1
 AtmWgt=   1.0078250   1.0078250   1.0078250   1.0078250   1.0078250   1.0078250   1.0078250
 NucSpn=           1           1           1           1           1           1           1
 AtZEff=   0.0000000   0.0000000   0.0000000   0.0000000   0.0000000   0.0000000   0.0000000
 NQMom=    0.0000000   0.0000000   0.0000000   0.0000000   0.0000000   0.0000000   0.0000000
 NMagM=    2.7928460   2.7928460   2.7928460   2.7928460   2.7928460   2.7928460   2.7928460
 AtZNuc=   1.0000000   1.0000000   1.0000000   1.0000000   1.0000000   1.0000000   1.0000000
 Leave Link  101 at Tue Jul 09 17:02:27 2019, MaxMem=   209715200 cpu:         0.0
 (Enter C:\G09W\l103.exe)

 GradGradGradGradGradGradGradGradGradGradGradGradGradGradGradGradGradGrad
 Berny optimization.
 Initialization pass.
                           ----------------------------
                           !    Initial Parameters    !
                           ! (Angstroms and Degrees)  !
 --------------------------                            --------------------------
 ! Name  Definition              Value          Derivative Info.                !
 --------------------------------------------------------------------------------
 ! R1    R(1,2)                  1.3841         estimate D2E/DX2                !
 ! R2    R(1,6)                  1.3859         estimate D2E/DX2                !
 ! R3    R(1,32)                 1.0757         estimate D2E/DX2                !
 ! R4    R(2,3)                  1.3907         estimate D2E/DX2                !
 ! R5    R(2,7)                  1.4254         estimate D2E/DX2                !
 ! R6    R(3,4)                  1.379          estimate D2E/DX2                !
 ! R7    R(3,33)                 1.0753         estimate D2E/DX2                !
 ! R8    R(4,5)                  1.3902         estimate D2E/DX2                !
 ! R9    R(4,34)                 1.0739         estimate D2E/DX2                !
 ! R10   R(5,6)                  1.3854         estimate D2E/DX2                !
 ! R11   R(5,29)                 1.3461         estimate D2E/DX2                !
 ! R12   R(6,35)                 1.0766         estimate D2E/DX2                !
 ! R13   R(7,8)                  1.3476         estimate D2E/DX2                !
 ! R14   R(7,36)                 0.9968         estimate D2E/DX2                !
 ! R15   R(8,9)                  1.335          estimate D2E/DX2                !
 ! R16   R(8,10)                 1.5158         estimate D2E/DX2                !
 ! R17   R(9,11)                 1.4557         estimate D2E/DX2                !
 ! R18   R(9,13)                 1.8671         estimate D2E/DX2                !
 ! R19   R(10,12)                1.4115         estimate D2E/DX2                !
 ! R20   R(10,15)                1.5403         estimate D2E/DX2                !
 ! R21   R(10,30)                1.0823         estimate D2E/DX2                !
 ! R22   R(11,12)                1.3555         estimate D2E/DX2                !
 ! R23   R(11,14)                1.18           estimate D2E/DX2                !
 ! R24   R(15,16)                1.5206         estimate D2E/DX2                !
 ! R25   R(15,17)                1.3956         estimate D2E/DX2                !
 ! R26   R(15,31)                1.08           estimate D2E/DX2                !
 ! R27   R(16,18)                1.3871         estimate D2E/DX2                !
 ! R28   R(16,22)                1.392          estimate D2E/DX2                !
 ! R29   R(17,37)                0.9442         estimate D2E/DX2                !
 ! R30   R(18,19)                1.385          estimate D2E/DX2                !
 ! R31   R(18,38)                1.0767         estimate D2E/DX2                !
 ! R32   R(19,20)                1.3897         estimate D2E/DX2                !
 ! R33   R(19,39)                1.0753         estimate D2E/DX2                !
 ! R34   R(20,21)                1.3934         estimate D2E/DX2                !
 ! R35   R(20,23)                1.4905         estimate D2E/DX2                !
 ! R36   R(21,22)                1.382          estimate D2E/DX2                !
 ! R37   R(21,40)                1.0753         estimate D2E/DX2                !
 ! R38   R(22,41)                1.0746         estimate D2E/DX2                !
 ! R39   R(23,24)                1.3925         estimate D2E/DX2                !
 ! R40   R(23,28)                1.3926         estimate D2E/DX2                !
 ! R41   R(24,25)                1.3844         estimate D2E/DX2                !
 ! R42   R(24,42)                1.0755         estimate D2E/DX2                !
 ! R43   R(25,26)                1.385          estimate D2E/DX2                !
 ! R44   R(25,43)                1.0759         estimate D2E/DX2                !
 ! R45   R(26,27)                1.385          estimate D2E/DX2                !
 ! R46   R(26,44)                1.0756         estimate D2E/DX2                !
 ! R47   R(27,28)                1.3843         estimate D2E/DX2                !
 ! R48   R(27,45)                1.0758         estimate D2E/DX2                !
 ! R49   R(28,46)                1.0755         estimate D2E/DX2                !
 ! R50   R(29,47)                0.943          estimate D2E/DX2                !
 ! A1    A(2,1,6)              120.6455         estimate D2E/DX2                !
 ! A2    A(2,1,32)             119.7565         estimate D2E/DX2                !
 ! A3    A(6,1,32)             119.5968         estimate D2E/DX2                !
 ! A4    A(1,2,3)              119.0383         estimate D2E/DX2                !
 ! A5    A(1,2,7)              121.309          estimate D2E/DX2                !
 ! A6    A(3,2,7)              119.6236         estimate D2E/DX2                !
 ! A7    A(2,3,4)              120.7681         estimate D2E/DX2                !
 ! A8    A(2,3,33)             119.139          estimate D2E/DX2                !
 ! A9    A(4,3,33)             120.0925         estimate D2E/DX2                !
 ! A10   A(3,4,5)              119.7874         estimate D2E/DX2                !
 ! A11   A(3,4,34)             121.2093         estimate D2E/DX2                !
 ! A12   A(5,4,34)             119.0021         estimate D2E/DX2                !
 ! A13   A(4,5,6)              119.8954         estimate D2E/DX2                !
 ! A14   A(4,5,29)             117.3594         estimate D2E/DX2                !
 ! A15   A(6,5,29)             122.7452         estimate D2E/DX2                !
 ! A16   A(1,6,5)              119.8501         estimate D2E/DX2                !
 ! A17   A(1,6,35)             119.858          estimate D2E/DX2                !
 ! A18   A(5,6,35)             120.2873         estimate D2E/DX2                !
 ! A19   A(2,7,8)              125.7176         estimate D2E/DX2                !
 ! A20   A(2,7,36)             117.0637         estimate D2E/DX2                !
 ! A21   A(8,7,36)             114.9733         estimate D2E/DX2                !
 ! A22   A(7,8,9)              128.1276         estimate D2E/DX2                !
 ! A23   A(7,8,10)             124.169          estimate D2E/DX2                !
 ! A24   A(9,8,10)             107.6785         estimate D2E/DX2                !
 ! A25   A(8,9,11)             109.8933         estimate D2E/DX2                !
 ! A26   A(8,9,13)             126.7887         estimate D2E/DX2                !
 ! A27   A(11,9,13)            123.3159         estimate D2E/DX2                !
 ! A28   A(8,10,12)            103.6856         estimate D2E/DX2                !
 ! A29   A(8,10,15)            113.8732         estimate D2E/DX2                !
 ! A30   A(8,10,30)            111.2209         estimate D2E/DX2                !
 ! A31   A(12,10,15)           109.2303         estimate D2E/DX2                !
 ! A32   A(12,10,30)           108.6259         estimate D2E/DX2                !
 ! A33   A(15,10,30)           109.9149         estimate D2E/DX2                !
 ! A34   A(9,11,12)            106.808          estimate D2E/DX2                !
 ! A35   A(9,11,14)            130.942          estimate D2E/DX2                !
 ! A36   A(12,11,14)           122.2483         estimate D2E/DX2                !
 ! A37   A(10,12,11)           111.8287         estimate D2E/DX2                !
 ! A38   A(10,15,16)           112.4296         estimate D2E/DX2                !
 ! A39   A(10,15,17)           109.9054         estimate D2E/DX2                !
 ! A40   A(10,15,31)           107.3652         estimate D2E/DX2                !
 ! A41   A(16,15,17)           113.5792         estimate D2E/DX2                !
 ! A42   A(16,15,31)           107.5592         estimate D2E/DX2                !
 ! A43   A(17,15,31)           105.5502         estimate D2E/DX2                !
 ! A44   A(15,16,18)           119.5014         estimate D2E/DX2                !
 ! A45   A(15,16,22)           122.3176         estimate D2E/DX2                !
 ! A46   A(18,16,22)           118.1784         estimate D2E/DX2                !
 ! A47   A(15,17,37)           110.119          estimate D2E/DX2                !
 ! A48   A(16,18,19)           121.1364         estimate D2E/DX2                !
 ! A49   A(16,18,38)           119.7589         estimate D2E/DX2                !
 ! A50   A(19,18,38)           119.1042         estimate D2E/DX2                !
 ! A51   A(18,19,20)           120.8418         estimate D2E/DX2                !
 ! A52   A(18,19,39)           119.4011         estimate D2E/DX2                !
 ! A53   A(20,19,39)           119.7514         estimate D2E/DX2                !
 ! A54   A(19,20,21)           117.9328         estimate D2E/DX2                !
 ! A55   A(19,20,23)           121.0649         estimate D2E/DX2                !
 ! A56   A(21,20,23)           121.0022         estimate D2E/DX2                !
 ! A57   A(20,21,22)           121.2087         estimate D2E/DX2                !
 ! A58   A(20,21,40)           119.5832         estimate D2E/DX2                !
 ! A59   A(22,21,40)           119.2012         estimate D2E/DX2                !
 ! A60   A(16,22,21)           120.7009         estimate D2E/DX2                !
 ! A61   A(16,22,41)           120.378          estimate D2E/DX2                !
 ! A62   A(21,22,41)           118.9181         estimate D2E/DX2                !
 ! A63   A(20,23,24)           120.7924         estimate D2E/DX2                !
 ! A64   A(20,23,28)           120.7901         estimate D2E/DX2                !
 ! A65   A(24,23,28)           118.4175         estimate D2E/DX2                !
 ! A66   A(23,24,25)           120.8001         estimate D2E/DX2                !
 ! A67   A(23,24,42)           119.592          estimate D2E/DX2                !
 ! A68   A(25,24,42)           119.5949         estimate D2E/DX2                !
 ! A69   A(24,25,26)           120.2389         estimate D2E/DX2                !
 ! A70   A(24,25,43)           119.6755         estimate D2E/DX2                !
 ! A71   A(26,25,43)           120.0838         estimate D2E/DX2                !
 ! A72   A(25,26,27)           119.5049         estimate D2E/DX2                !
 ! A73   A(25,26,44)           120.2488         estimate D2E/DX2                !
 ! A74   A(27,26,44)           120.2463         estimate D2E/DX2                !
 ! A75   A(26,27,28)           120.2403         estimate D2E/DX2                !
 ! A76   A(26,27,45)           120.0871         estimate D2E/DX2                !
 ! A77   A(28,27,45)           119.6714         estimate D2E/DX2                !
 ! A78   A(23,28,27)           120.7983         estimate D2E/DX2                !
 ! A79   A(23,28,46)           119.6102         estimate D2E/DX2                !
 ! A80   A(27,28,46)           119.5811         estimate D2E/DX2                !
 ! A81   A(5,29,47)            111.4411         estimate D2E/DX2                !
 ! D1    D(6,1,2,3)             -1.3494         estimate D2E/DX2                !
 ! D2    D(6,1,2,7)           -179.3799         estimate D2E/DX2                !
 ! D3    D(32,1,2,3)           178.2505         estimate D2E/DX2                !
 ! D4    D(32,1,2,7)             0.22           estimate D2E/DX2                !
 ! D5    D(2,1,6,5)              1.2305         estimate D2E/DX2                !
 ! D6    D(2,1,6,35)          -179.5442         estimate D2E/DX2                !
 ! D7    D(32,1,6,5)          -178.3701         estimate D2E/DX2                !
 ! D8    D(32,1,6,35)            0.8553         estimate D2E/DX2                !
 ! D9    D(1,2,3,4)              0.4799         estimate D2E/DX2                !
 ! D10   D(1,2,3,33)          -179.7395         estimate D2E/DX2                !
 ! D11   D(7,2,3,4)            178.5442         estimate D2E/DX2                !
 ! D12   D(7,2,3,33)            -1.6752         estimate D2E/DX2                !
 ! D13   D(1,2,7,8)            -61.7805         estimate D2E/DX2                !
 ! D14   D(1,2,7,36)           100.2693         estimate D2E/DX2                !
 ! D15   D(3,2,7,8)            120.2003         estimate D2E/DX2                !
 ! D16   D(3,2,7,36)           -77.7499         estimate D2E/DX2                !
 ! D17   D(2,3,4,5)              0.5038         estimate D2E/DX2                !
 ! D18   D(2,3,4,34)          -179.8913         estimate D2E/DX2                !
 ! D19   D(33,3,4,5)          -179.2747         estimate D2E/DX2                !
 ! D20   D(33,3,4,34)            0.3302         estimate D2E/DX2                !
 ! D21   D(3,4,5,6)             -0.6298         estimate D2E/DX2                !
 ! D22   D(3,4,5,29)           179.44           estimate D2E/DX2                !
 ! D23   D(34,4,5,6)           179.7565         estimate D2E/DX2                !
 ! D24   D(34,4,5,29)           -0.1736         estimate D2E/DX2                !
 ! D25   D(4,5,6,1)             -0.2288         estimate D2E/DX2                !
 ! D26   D(4,5,6,35)          -179.4508         estimate D2E/DX2                !
 ! D27   D(29,5,6,1)           179.6974         estimate D2E/DX2                !
 ! D28   D(29,5,6,35)            0.4754         estimate D2E/DX2                !
 ! D29   D(4,5,29,47)          179.68           estimate D2E/DX2                !
 ! D30   D(6,5,29,47)           -0.248          estimate D2E/DX2                !
 ! D31   D(2,7,8,9)            161.8338         estimate D2E/DX2                !
 ! D32   D(2,7,8,10)           -20.2076         estimate D2E/DX2                !
 ! D33   D(36,7,8,9)            -0.5434         estimate D2E/DX2                !
 ! D34   D(36,7,8,10)          177.4152         estimate D2E/DX2                !
 ! D35   D(7,8,9,11)           178.4604         estimate D2E/DX2                !
 ! D36   D(7,8,9,13)            -1.0239         estimate D2E/DX2                !
 ! D37   D(10,8,9,11)            0.2331         estimate D2E/DX2                !
 ! D38   D(10,8,9,13)         -179.2512         estimate D2E/DX2                !
 ! D39   D(7,8,10,12)          179.6267         estimate D2E/DX2                !
 ! D40   D(7,8,10,15)          -61.7872         estimate D2E/DX2                !
 ! D41   D(7,8,10,30)           63.0635         estimate D2E/DX2                !
 ! D42   D(9,8,10,12)           -2.0587         estimate D2E/DX2                !
 ! D43   D(9,8,10,15)          116.5274         estimate D2E/DX2                !
 ! D44   D(9,8,10,30)         -118.6219         estimate D2E/DX2                !
 ! D45   D(8,9,11,12)            1.7842         estimate D2E/DX2                !
 ! D46   D(8,9,11,14)         -178.6825         estimate D2E/DX2                !
 ! D47   D(13,9,11,12)        -178.71           estimate D2E/DX2                !
 ! D48   D(13,9,11,14)           0.8232         estimate D2E/DX2                !
 ! D49   D(8,10,12,11)           3.2808         estimate D2E/DX2                !
 ! D50   D(15,10,12,11)       -118.4615         estimate D2E/DX2                !
 ! D51   D(30,10,12,11)        121.6534         estimate D2E/DX2                !
 ! D52   D(8,10,15,16)         170.6377         estimate D2E/DX2                !
 ! D53   D(8,10,15,17)         -61.7931         estimate D2E/DX2                !
 ! D54   D(8,10,15,31)          52.5353         estimate D2E/DX2                !
 ! D55   D(12,10,15,16)        -73.9959         estimate D2E/DX2                !
 ! D56   D(12,10,15,17)         53.5733         estimate D2E/DX2                !
 ! D57   D(12,10,15,31)        167.9017         estimate D2E/DX2                !
 ! D58   D(30,10,15,16)         45.0922         estimate D2E/DX2                !
 ! D59   D(30,10,15,17)        172.6614         estimate D2E/DX2                !
 ! D60   D(30,10,15,31)        -73.0102         estimate D2E/DX2                !
 ! D61   D(9,11,12,10)          -3.226          estimate D2E/DX2                !
 ! D62   D(14,11,12,10)        177.191          estimate D2E/DX2                !
 ! D63   D(10,15,16,18)       -116.0022         estimate D2E/DX2                !
 ! D64   D(10,15,16,22)         64.5959         estimate D2E/DX2                !
 ! D65   D(17,15,16,18)        118.4032         estimate D2E/DX2                !
 ! D66   D(17,15,16,22)        -60.9987         estimate D2E/DX2                !
 ! D67   D(31,15,16,18)          1.9857         estimate D2E/DX2                !
 ! D68   D(31,15,16,22)       -177.4163         estimate D2E/DX2                !
 ! D69   D(10,15,17,37)        -70.1351         estimate D2E/DX2                !
 ! D70   D(16,15,17,37)         56.7922         estimate D2E/DX2                !
 ! D71   D(31,15,17,37)        174.3817         estimate D2E/DX2                !
 ! D72   D(15,16,18,19)       -179.5291         estimate D2E/DX2                !
 ! D73   D(15,16,18,38)          0.7164         estimate D2E/DX2                !
 ! D74   D(22,16,18,19)         -0.1025         estimate D2E/DX2                !
 ! D75   D(22,16,18,38)       -179.857          estimate D2E/DX2                !
 ! D76   D(15,16,22,21)        179.2106         estimate D2E/DX2                !
 ! D77   D(15,16,22,41)         -1.4276         estimate D2E/DX2                !
 ! D78   D(18,16,22,21)         -0.1989         estimate D2E/DX2                !
 ! D79   D(18,16,22,41)        179.1629         estimate D2E/DX2                !
 ! D80   D(16,18,19,20)          0.32           estimate D2E/DX2                !
 ! D81   D(16,18,19,39)       -178.8096         estimate D2E/DX2                !
 ! D82   D(38,18,19,20)       -179.9239         estimate D2E/DX2                !
 ! D83   D(38,18,19,39)          0.9466         estimate D2E/DX2                !
 ! D84   D(18,19,20,21)         -0.2273         estimate D2E/DX2                !
 ! D85   D(18,19,20,23)        179.8223         estimate D2E/DX2                !
 ! D86   D(39,19,20,21)        178.8993         estimate D2E/DX2                !
 ! D87   D(39,19,20,23)         -1.0512         estimate D2E/DX2                !
 ! D88   D(19,20,21,22)         -0.0743         estimate D2E/DX2                !
 ! D89   D(19,20,21,40)        178.9642         estimate D2E/DX2                !
 ! D90   D(23,20,21,22)        179.8761         estimate D2E/DX2                !
 ! D91   D(23,20,21,40)         -1.0854         estimate D2E/DX2                !
 ! D92   D(19,20,23,24)        -44.9779         estimate D2E/DX2                !
 ! D93   D(19,20,23,28)        135.0096         estimate D2E/DX2                !
 ! D94   D(21,20,23,24)        135.0732         estimate D2E/DX2                !
 ! D95   D(21,20,23,28)        -44.9393         estimate D2E/DX2                !
 ! D96   D(20,21,22,16)          0.2906         estimate D2E/DX2                !
 ! D97   D(20,21,22,41)       -179.0805         estimate D2E/DX2                !
 ! D98   D(40,21,22,16)       -178.7516         estimate D2E/DX2                !
 ! D99   D(40,21,22,41)          1.8774         estimate D2E/DX2                !
 ! D100  D(20,23,24,25)        179.9491         estimate D2E/DX2                !
 ! D101  D(20,23,24,42)         -1.3667         estimate D2E/DX2                !
 ! D102  D(28,23,24,25)         -0.0387         estimate D2E/DX2                !
 ! D103  D(28,23,24,42)        178.6455         estimate D2E/DX2                !
 ! D104  D(20,23,28,27)       -179.9584         estimate D2E/DX2                !
 ! D105  D(20,23,28,46)         -1.1353         estimate D2E/DX2                !
 ! D106  D(24,23,28,27)          0.0294         estimate D2E/DX2                !
 ! D107  D(24,23,28,46)        178.8525         estimate D2E/DX2                !
 ! D108  D(23,24,25,26)          0.018          estimate D2E/DX2                !
 ! D109  D(23,24,25,43)        179.5286         estimate D2E/DX2                !
 ! D110  D(42,24,25,26)       -178.6661         estimate D2E/DX2                !
 ! D111  D(42,24,25,43)          0.8444         estimate D2E/DX2                !
 ! D112  D(24,25,26,27)          0.0128         estimate D2E/DX2                !
 ! D113  D(24,25,26,44)        179.954          estimate D2E/DX2                !
 ! D114  D(43,25,26,27)       -179.4958         estimate D2E/DX2                !
 ! D115  D(43,25,26,44)          0.4455         estimate D2E/DX2                !
 ! D116  D(25,26,27,28)         -0.022          estimate D2E/DX2                !
 ! D117  D(25,26,27,45)       -179.6329         estimate D2E/DX2                !
 ! D118  D(44,26,27,28)       -179.9633         estimate D2E/DX2                !
 ! D119  D(44,26,27,45)          0.4258         estimate D2E/DX2                !
 ! D120  D(26,27,28,23)          0.0007         estimate D2E/DX2                !
 ! D121  D(26,27,28,46)       -178.8228         estimate D2E/DX2                !
 ! D122  D(45,27,28,23)        179.6132         estimate D2E/DX2                !
 ! D123  D(45,27,28,46)          0.7897         estimate D2E/DX2                !
 --------------------------------------------------------------------------------
 Trust Radius=3.00D-01 FncErr=1.00D-07 GrdErr=1.00D-06
 Number of steps in this run=    264 maximum allowed number of steps=    282.
 GradGradGradGradGradGradGradGradGradGradGradGradGradGradGradGradGradGrad

 Leave Link  103 at Tue Jul 09 17:02:27 2019, MaxMem=   209715200 cpu:         0.0
 (Enter C:\G09W\l202.exe)
                          Input orientation:                          
 ---------------------------------------------------------------------
 Center     Atomic      Atomic             Coordinates (Angstroms)
 Number     Number       Type             X           Y           Z
 ---------------------------------------------------------------------
      1          6           0        2.141853    2.528280   -1.281146
      2          6           0        2.501216    2.113446   -0.010483
      3          6           0        2.252944    2.953818    1.069396
      4          6           0        1.648759    4.179666    0.885032
      5          6           0        1.272629    4.579102   -0.392319
      6          6           0        1.517933    3.750486   -1.475186
      7          7           0        3.155187    0.865202    0.203904
      8          6           0        2.646993   -0.349034   -0.084946
      9          6           0        3.300912   -1.504679   -0.222865
     10          6           0        1.169301   -0.631362   -0.270057
     11          6           0        2.357171   -2.577809   -0.500030
     12          8           0        1.126970   -2.011857   -0.561152
     13         35           0        5.143260   -1.771099   -0.078328
     14          8           0        2.527180   -3.733944   -0.663659
     15          6           0        0.319256   -0.350905    0.983431
     16          6           0       -1.173044   -0.424277    0.700781
     17          8           0        0.730321   -1.176567    2.030791
     18          6           0       -1.951339    0.715460    0.839370
     19          6           0       -3.315143    0.684801    0.600068
     20          6           0       -3.945402   -0.493877    0.219538
     21          6           0       -3.162088   -1.638104    0.082581
     22          6           0       -1.800276   -1.605722    0.315451
     23          6           0       -5.413429   -0.533415   -0.035446
     24          6           0       -6.305629    0.082375    0.838579
     25          6           0       -7.669058    0.046647    0.601354
     26          6           0       -8.166004   -0.606083   -0.514521
     27          6           0       -7.288754   -1.222932   -1.390996
     28          6           0       -5.925401   -1.186837   -1.153559
     29          8           0        0.676417    5.779763   -0.514586
     30          1           0        0.769463   -0.087297   -1.115945
     31          1           0        0.540937    0.656175    1.304534
     32          1           0        2.354066    1.899733   -2.127931
     33          1           0        2.535313    2.634952    2.056764
     34          1           0        1.455266    4.834933    1.713607
     35          1           0        1.237271    4.057342   -2.468269
     36          1           0        4.142951    0.887479    0.335810
     37          1           0        0.486796   -2.071427    1.853670
     38          1           0       -1.492087    1.643611    1.134012
     39          1           0       -3.888640    1.589250    0.697275
     40          1           0       -3.624962   -2.568269   -0.194383
     41          1           0       -1.229125   -2.506497    0.184406
     42          1           0       -5.932471    0.573602    1.719592
     43          1           0       -8.342610    0.521974    1.292620
     44          1           0       -9.225374   -0.634573   -0.698600
     45          1           0       -7.664148   -1.727556   -2.263839
     46          1           0       -5.252459   -1.653018   -1.851116
     47          1           0        0.461893    5.968189   -1.413345
 ---------------------------------------------------------------------
                    Distance matrix (angstroms):
                    1          2          3          4          5
     1  C    0.000000
     2  C    1.384129   0.000000
     3  C    2.391333   1.390684   0.000000
     4  C    2.768130   2.407882   1.379033   0.000000
     5  C    2.398215   2.781130   2.395658   1.390197   0.000000
     6  C    1.385899   2.406678   2.765831   2.402486   1.385417
     7  N    2.449091   1.425396   2.434222   3.703908   4.206252
     8  C    3.156738   2.467915   3.520882   4.737769   5.125415
     9  C    4.327601   3.711529   4.758820   6.022360   6.415219
    10  C    3.457094   3.061919   3.977679   4.970926   5.212922
    11  C    5.169976   4.718928   5.750901   6.934242   7.239420
    12  O    4.707571   4.382912   5.346441   6.379551   6.594730
    13  Br   5.379579   4.698371   5.656504   6.967869   7.443482
    14  O    6.304381   5.883815   6.914105   8.111430   8.411555
    15  C    4.091439   3.438290   3.829848   4.722641   5.206398
    16  C    4.861499   4.521739   4.825432   5.403037   5.675384
    17  O    5.165969   4.257588   4.505856   5.553875   6.268436
    18  C    4.953496   4.743613   4.768559   4.996350   5.180614
    19  C    6.059388   6.020285   6.030945   6.077467   6.099022
    20  C    6.959896   6.957724   7.143413   7.319804   7.303241
    21  C    6.881155   6.793806   7.168132   7.591747   7.651529
    22  C    5.931229   5.695724   6.147067   6.759510   6.942315
    23  C    8.246698   8.345544   8.494395   8.540194   8.424284
    24  C    9.046305   9.077812   9.030373   8.947751   8.897509
    25  C   10.293507  10.396176  10.349726  10.197256  10.073942
    26  C   10.801105  11.019958  11.123676  11.008711  10.769813
    27  C   10.149877  10.434594  10.702466  10.688663  10.390295
    28  C    8.882509   9.121752   9.432491   9.503847   9.254036
    29  O    3.647912   4.126244   3.602832   2.337668   1.346107
    30  H    2.958376   3.010695   4.028003   4.794168   4.748904
    31  H    3.571197   2.774095   2.874965   3.717289   4.336362
    32  H    1.075709   2.133287   3.368118   3.843631   3.370589
    33  H    3.362712   2.132285   1.075315   2.131918   3.372254
    34  H    3.841952   3.387180   2.142403   1.073942   2.129256
    35  H    2.136717   3.378905   3.842451   3.380668   2.140806
    36  H    3.051421   2.078030   2.894828   4.166669   4.732547
    37  H    5.807202   5.004610   5.384000   6.431530   7.063394
    38  H    4.452095   4.180560   3.968132   4.044562   4.311664
    39  H    6.415822   6.450268   6.302347   6.116232   6.063425
    40  H    7.772517   7.712479   8.163355   8.632027   8.666631
    41  H    6.233804   5.941153   6.536287   7.312856   7.536385
    42  H    8.832888   8.745934   8.549222   8.436542   8.509857
    43  H   10.980597  11.037184  10.873337  10.647643  10.571288
    44  H   11.813418  12.063914  12.155416  11.997148  11.725369
    45  H   10.734779  11.097997  11.461869  11.469128  11.096959
    46  H    8.513752   8.814401   9.278114   9.441055   9.140251
    47  H    3.830498   4.581037   4.296312   3.144837   1.905085
                    6          7          8          9         10
     6  C    0.000000
     7  N    3.718173   0.000000
     8  C    4.473657   1.347614   0.000000
     9  C    5.688944   2.412406   1.334971   0.000000
    10  C    4.557902   2.531420   1.515767   2.304056   0.000000
    11  C    6.457752   3.603703   2.285548   1.455704   2.291850
    12  O    5.847470   3.602283   2.302656   2.257807   1.411487
    13  Br   6.751452   3.313936   2.872919   1.867115   4.138612
    14  O    7.595647   4.722203   3.436114   2.400538   3.409512
    15  C    4.929811   3.182622   2.561209   3.417107   1.540281
    16  C    5.422623   4.543482   3.900732   4.694323   2.544011
    17  O    6.098201   3.658731   2.972337   3.434321   2.404964
    18  C    5.157945   5.148092   4.809591   5.800302   3.575353
    19  C    6.087999   6.484956   6.089756   7.017352   4.753908
    20  C    7.122832   7.229502   6.601012   7.329837   5.139921
    21  C    7.305213   6.796265   5.952746   6.471589   4.460809
    22  C    6.550256   5.538458   4.638727   5.130508   3.179715
    23  C    8.274566   8.685309   8.062683   8.770303   6.587638
    24  C    8.945204   9.514340   9.010464   9.794439   7.590328
    25  C   10.120832  10.862425  10.346424  11.109734   8.907056
    26  C   10.662139  11.438976  10.824579  11.505768   9.338540
    27  C   10.114332  10.769397  10.059251  10.657623   8.552494
    28  C    8.937775   9.408010   8.679273   9.278581   7.171048
    29  O    2.397679   5.550985   6.452125   7.748301   6.434691
    30  H    3.926556   2.888068   2.157912   3.035589   1.082314
    31  H    4.272719   2.844184   2.715984   3.823572   2.128833
    32  H    2.133186   2.673856   3.052302   4.014451   3.355861
    33  H    3.841113   2.636162   3.674720   4.787420   4.236613
    34  H    3.368732   4.574680   5.615026   6.880917   5.822120
    35  H    1.076636   4.583521   5.204200   6.343227   5.178871
    36  H    4.285701   0.996781   1.985923   2.596838   3.393604
    37  H    6.785219   4.297188   3.375103   3.542944   2.655149
    38  H    4.506335   4.802934   4.752734   5.892850   3.772254
    39  H    6.214625   7.098110   6.861728   7.880908   5.607996
    40  H    8.247211   7.610373   6.653901   7.007122   5.171295
    41  H    7.032099   5.530906   4.444265   4.657332   3.078168
    42  H    8.706763   9.217802   8.815601   9.661664   7.473005
    43  H   10.738452  11.554326  11.109803  11.915352   9.708172
    44  H   11.629724  12.503685  11.891644  12.565478  10.403506
    45  H   10.721079  11.396059  10.628618  11.155617   9.121767
    46  H    8.670489   9.014047   8.198846   8.708235   6.691975
    47  H    2.457082   5.992479   6.815175   8.082143   6.735103
                   11         12         13         14         15
    11  C    0.000000
    12  O    1.355519   0.000000
    13  Br   2.931025   4.052366   0.000000
    14  O    1.179968   2.221864   3.322536   0.000000
    15  C    3.363459   2.407675   5.139581   4.362658   0.000000
    16  C    4.306050   3.066423   6.505124   5.148519   1.520603
    17  O    3.318912   2.751946   4.927056   4.126614   1.395584
    18  C    5.585953   4.344618   7.573538   6.489486   2.512666
    19  C    6.635509   5.324731   8.833813   7.433374   3.798488
    20  C    6.677049   5.351887   9.182799   7.291940   4.334891
    21  C    5.628917   4.353171   8.307971   6.108780   3.819446
    22  C    4.346761   3.082555   6.956659   4.920860   2.552093
    23  C    8.048454   6.725993  10.629082   8.584364   5.825384
    24  C    9.160380   7.847839  11.634137   9.738559   6.640619
    25  C   10.422384   9.108181  12.958459  10.947895   8.007321
    26  C   10.706312   9.398816  13.367275  11.142259   8.620244
    27  C    9.781277   8.493259  12.513135  10.158088   8.017490
    28  C    8.423948   7.125134  11.136101   8.841599   6.652913
    29  O    8.524914   7.804775   8.783993   9.693202   6.321132
    30  H    3.017088   2.034585   4.800202   4.073348   2.163228
    31  H    4.124780   3.307962   5.383804   5.205006   1.080028
    32  H    4.764289   4.388747   5.045343   5.823433   4.345848
    33  H    5.808770   5.516317   5.547368   6.925576   3.870180
    34  H    7.788605   7.222246   7.775088   8.956899   5.358786
    35  H    7.010946   6.362738   7.412104   8.100902   5.673590
    36  H    3.986961   4.278648   2.870569   4.996719   4.071075
    37  H    3.048709   2.498947   5.050294   3.641988   1.935350
    38  H    5.941992   4.805776   7.560281   6.950124   2.698468
    39  H    7.603162   6.301425   9.667922   8.446969   4.642464
    40  H    5.989944   4.798434   8.805150   6.279162   4.675554
    41  H    3.651720   2.520260   6.420057   4.041741   2.771733
    42  H    9.142006   7.856341  11.463069   9.787775   6.362447
    43  H   11.283065   9.976458  13.747959  11.836055   8.711225
    44  H   11.746103  10.444464  14.426852  12.154417   9.695858
    45  H   10.210817   8.959002  12.992615  10.509488   8.727810
    46  H    7.783774   6.518427  10.546454   8.140214   6.385465
    47  H    8.801154   8.052931   9.142978   9.947805   6.759869
                   16         17         18         19         20
    16  C    0.000000
    17  O    2.440833   0.000000
    18  C    1.387065   3.491497   0.000000
    19  C    2.414288   4.677332   1.384979   0.000000
    20  C    2.814677   5.060542   2.413084   1.389716   0.000000
    21  C    2.410776   4.377144   2.752800   2.384765   1.393411
    22  C    1.392017   3.087149   2.384365   2.760856   2.418050
    23  C    4.305207   6.513727   3.782996   2.508133   1.490531
    24  C    5.159371   7.246440   4.400073   3.059871   2.507180
    25  C    6.513820   8.607503   5.761621   4.400434   3.782005
    26  C    7.100106   9.270850   6.496273   5.141940   4.285430
    27  C    6.512702   8.718735   6.100811   4.836669   3.781976
    28  C    5.158001   7.378267   4.835666   3.659465   2.507187
    29  O    6.586937   7.407589   5.863912   6.567621   7.826794
    30  H    2.680929   3.330163   3.445350   4.497204   4.917192
    31  H    2.114149   1.980469   2.536007   3.920006   4.756792
    32  H    5.083615   5.421728   5.361333   6.407649   7.136055
    33  H    4.994946   4.217386   5.029567   6.336631   7.427290
    34  H    5.965997   6.063356   5.416577   6.420309   7.732766
    35  H    5.994781   6.920429   5.681187   6.443074   7.402567
    36  H    5.487596   4.333508   6.117478   7.465526   8.206285
    37  H    2.607168   0.944167   3.839277   4.860355   4.980304
    38  H    2.136735   3.700907   1.076657   2.127897   3.379922
    39  H    3.380646   5.546423   2.129985   1.075349   2.137960
    40  H    3.377858   5.084951   3.827863   3.362976   2.139419
    41  H    2.146026   3.002879   3.366241   3.835183   3.380833
    42  H    4.968489   6.895849   4.079746   2.848878   2.708896
    43  H    7.255918   9.260022   6.410243   5.077555   4.638846
    44  H    8.175727  10.337272   7.556423   6.193393   5.361052
    45  H    7.254098   9.445345   6.945100   5.738926   4.638771
    46  H    4.966247   7.147717   4.872966   3.902165   2.709172
    47  H    6.928648   7.936099   6.203997   6.799560   7.990548
                   21         22         23         24         25
    21  C    0.000000
    22  C    1.381958   0.000000
    23  C    2.510539   3.785214   0.000000
    24  C    3.662435   4.839581   1.392529   0.000000
    25  C    4.839451   6.103660   2.414508   1.384374   0.000000
    26  C    5.144004   6.496970   2.794899   2.401218   1.384987
    27  C    4.401496   5.760372   2.414497   2.764302   2.392890
    28  C    3.060651   4.398876   1.392570   2.392506   2.764334
    29  O    8.373499   7.833796   8.784760   9.112642  10.186309
    30  H    4.393013   3.310297   6.292428   7.342062   8.612531
    31  H    4.524299   3.402314   6.218130   6.886351   8.262566
    32  H    6.915968   5.959605   8.404325   9.332379  10.552059
    33  H    7.390317   6.309740   8.808995   9.282342  10.627640
    34  H    8.116675   7.350880   8.891418   9.142427  10.364269
    35  H    7.635398   7.003291   8.439519   9.144996  10.238699
    36  H    7.733453   6.445030   9.668566  10.491606  11.844875
    37  H    4.079078   2.795299   6.383329   7.197660   8.518949
    38  H    3.829369   3.364994   4.635083   5.069016   6.402264
    39  H    3.364750   3.836001   2.714326   2.851749   4.084163
    40  H    1.075253   2.125066   2.713762   3.908823   4.881157
    41  H    2.121514   1.074608   4.631392   5.735947   6.940110
    42  H    3.904673   4.878125   2.138937   1.075516   2.131636
    43  H    5.741771   6.948675   3.384923   2.132766   1.075852
    44  H    6.195220   7.556686   3.870521   3.376662   2.139173
    45  H    5.077621   6.407228   3.384885   3.840107   3.370037
    46  H    2.847641   4.076005   2.139177   3.369750   3.839716
    47  H    8.557262   8.091370   8.870675   9.247341  10.258462
                   26         27         28         29         30
    26  C    0.000000
    27  C    1.385019   0.000000
    28  C    2.401239   1.384345   0.000000
    29  O   10.907220  10.641888   9.619033   0.000000
    30  H    8.970698   8.142492   6.784660   5.898532   0.000000
    31  H    8.984046   8.491230   7.159081   5.438631   2.542379
    32  H   10.934079  10.162583   8.889651   4.524602   2.735575
    33  H   11.473186  11.103270   9.823234   4.467345   4.538166
    34  H   11.275551  11.081253   9.947693   2.542470   5.718832
    35  H   10.676434  10.086373   8.974060   2.664239   4.384707
    36  H   12.428361  11.752428  10.387142   6.055945   3.799763
    37  H    9.089913   8.467997   7.137380   8.202791   3.582637
    38  H    7.233253   6.942196   5.735738   4.952579   3.629457
    39  H    4.958203   4.881600   3.909046   6.314171   5.272239
    40  H    4.957189   4.082302   2.849630   9.396490   5.129861
    41  H    7.226366   6.391286   5.058326   8.531224   3.396733
    42  H    3.372178   3.839635   3.369598   8.704773   7.307050
    43  H    2.137630   3.370030   3.840147  10.594960   9.444695
    44  H    1.075621   2.139176   3.376656  11.799281  10.018506
    45  H    2.137680   1.075835   2.132684  11.357145   8.667982
    46  H    3.372136   2.131474   1.075528   9.601256   6.265421
    47  H   10.884372  10.572854   9.594760   0.943023   6.070581
                   31         32         33         34         35
    31  H    0.000000
    32  H    4.076235   0.000000
    33  H    2.908426   4.252654   0.000000
    34  H    4.297134   4.917383   2.474707   0.000000
    35  H    5.127071   2.453230   4.917726   4.259138   0.000000
    36  H    3.737169   3.208549   2.932549   4.970349   5.133602
    37  H    2.782857   5.925365   5.136893   6.975339   7.536855
    38  H    2.266560   5.049630   4.249021   4.382620   5.123663
    39  H    4.567335   6.859269   6.648975   6.334408   6.510538
    40  H    5.477089   7.710410   8.371987   9.179136   8.527050
    41  H    3.793455   6.131967   6.641627   7.964986   7.496918
    42  H    6.487226   9.231942   8.721595   8.528636   9.004434
    43  H    8.884569  11.314472  11.107556  10.713413  10.881968
    44  H   10.052831  11.939394  12.513816  12.239702  11.602273
    45  H    9.259529  10.655529  11.904961  11.918475  10.618008
    46  H    6.989559   8.399874   9.711210   9.989711   8.666354
    47  H    5.967462   4.543488   5.239389   3.471151   2.316336
                   36         37         38         39         40
    36  H    0.000000
    37  H    4.942317   0.000000
    38  H    5.741299   4.270292   0.000000
    39  H    8.070291   5.820846   2.436629   0.000000
    40  H    8.518437   4.620382   4.904459   4.260228   0.000000
    41  H    6.356194   2.433128   4.265477   4.910315   2.426382
    42  H   10.174846   6.944145   4.604871   2.500783   4.342724
    43  H   12.527502   9.219486   6.943550   4.618589   5.832408
    44  H   13.494397  10.144204   8.267546   5.947654   5.946262
    45  H   12.369485   9.138381   7.810537   5.832997   4.615677
    46  H    9.975495   6.843943   5.824015   4.343570   2.496236
    47  H    6.513321   8.678101   5.386004   6.523570   9.542503
                   41         42         43         44         45
    41  H    0.000000
    42  H    5.827973   0.000000
    43  H    7.810342   2.448212   0.000000
    44  H    8.259770   4.260346   2.466137   0.000000
    45  H    6.928937   4.915461   4.262522   2.466173   0.000000
    46  H    4.589008   4.262653   4.915557   4.260232   2.447885
    47  H    8.788211   8.933351  10.700597  11.745232  11.224098
                   46         47
    46  H    0.000000
    47  H    9.535631   0.000000
 Stoichiometry    C23H18BrNO4
 Framework group  C1[X(C23H18BrNO4)]
 Deg. of freedom   135
 Full point group                 C1      NOp   1
 Largest Abelian subgroup         C1      NOp   1
 Largest concise Abelian subgroup C1      NOp   1
                         Standard orientation:                         
 ---------------------------------------------------------------------
 Center     Atomic      Atomic             Coordinates (Angstroms)
 Number     Number       Type             X           Y           Z
 ---------------------------------------------------------------------
      1          6           0        2.141853    2.528280   -1.281146
      2          6           0        2.501216    2.113446   -0.010483
      3          6           0        2.252944    2.953818    1.069396
      4          6           0        1.648759    4.179666    0.885032
      5          6           0        1.272629    4.579102   -0.392319
      6          6           0        1.517933    3.750486   -1.475186
      7          7           0        3.155187    0.865202    0.203904
      8          6           0        2.646993   -0.349034   -0.084946
      9          6           0        3.300912   -1.504679   -0.222865
     10          6           0        1.169301   -0.631362   -0.270057
     11          6           0        2.357171   -2.577809   -0.500030
     12          8           0        1.126970   -2.011857   -0.561152
     13         35           0        5.143260   -1.771099   -0.078328
     14          8           0        2.527180   -3.733944   -0.663659
     15          6           0        0.319256   -0.350905    0.983431
     16          6           0       -1.173044   -0.424277    0.700781
     17          8           0        0.730321   -1.176567    2.030791
     18          6           0       -1.951339    0.715460    0.839370
     19          6           0       -3.315143    0.684801    0.600068
     20          6           0       -3.945402   -0.493877    0.219538
     21          6           0       -3.162088   -1.638104    0.082581
     22          6           0       -1.800276   -1.605722    0.315451
     23          6           0       -5.413429   -0.533415   -0.035446
     24          6           0       -6.305629    0.082375    0.838579
     25          6           0       -7.669058    0.046647    0.601354
     26          6           0       -8.166004   -0.606083   -0.514521
     27          6           0       -7.288754   -1.222932   -1.390996
     28          6           0       -5.925401   -1.186837   -1.153559
     29          8           0        0.676417    5.779763   -0.514586
     30          1           0        0.769463   -0.087297   -1.115945
     31          1           0        0.540937    0.656175    1.304534
     32          1           0        2.354066    1.899733   -2.127931
     33          1           0        2.535313    2.634952    2.056764
     34          1           0        1.455266    4.834933    1.713607
     35          1           0        1.237271    4.057342   -2.468269
     36          1           0        4.142951    0.887479    0.335810
     37          1           0        0.486796   -2.071427    1.853670
     38          1           0       -1.492087    1.643611    1.134012
     39          1           0       -3.888640    1.589250    0.697275
     40          1           0       -3.624962   -2.568269   -0.194383
     41          1           0       -1.229125   -2.506497    0.184406
     42          1           0       -5.932471    0.573602    1.719592
     43          1           0       -8.342610    0.521974    1.292620
     44          1           0       -9.225374   -0.634573   -0.698600
     45          1           0       -7.664148   -1.727556   -2.263839
     46          1           0       -5.252459   -1.653018   -1.851116
     47          1           0        0.461893    5.968189   -1.413345
 ---------------------------------------------------------------------
 Rotational constants (GHZ):      0.1940251      0.0674603      0.0530856
 Leave Link  202 at Tue Jul 09 17:02:27 2019, MaxMem=   209715200 cpu:         0.0
 (Enter C:\G09W\l301.exe)
 Standard basis: 6-311++G(d,p) (5D, 7F)
 Ernie: Thresh=  0.10000D-02 Tol=  0.10000D-05 Strict=F.
 There are   821 symmetry adapted cartesian basis functions of A   symmetry.
 There are   790 symmetry adapted basis functions of A   symmetry.
   790 basis functions,  1264 primitive gaussians,   821 cartesian basis functions
   115 alpha electrons      115 beta electrons
       nuclear repulsion energy      3034.4349790639 Hartrees.
 IExCor=  402 DFT=T Ex+Corr=B3LYP ExCW=0 ScaHFX=  0.200000
 ScaDFX=  0.800000  0.720000  1.000000  0.810000 ScalE2=  1.000000  1.000000
 IRadAn=      0 IRanWt=     -1 IRanGd=            0 ICorTp=0 IEmpDi=  4
 NAtoms=   47 NActive=   47 NUniq=   47 SFac= 1.00D+00 NAtFMM=   60 NAOKFM=F Big=F
 Integral buffers will be    262144 words long.
 Raffenetti 2 integral format.
 Two-electron integral symmetry is turned on.
 Leave Link  301 at Tue Jul 09 17:02:27 2019, MaxMem=   209715200 cpu:         0.0
 (Enter C:\G09W\l302.exe)
 NPDir=0 NMtPBC=     1 NCelOv=     1 NCel=       1 NClECP=     1 NCelD=      1
         NCelK=      1 NCelE2=     1 NClLst=     1 CellRange=     0.0.
 One-electron integrals computed using PRISM.
 NBasis=   790 RedAO= T EigKep=  1.02D-06  NBF=   790
 NBsUse=   784 1.00D-06 EigRej=  7.80D-07 NBFU=   784
 Precomputing XC quadrature grid using
 IXCGrd= 4 IRadAn=           0 IRanWt=          -1 IRanGd=           0 AccXCQ= 0.00D+00.
 Generated NRdTot=       0 NPtTot=           0 NUsed=           0 NTot=          16
 NSgBfM=   771   772   773   773   773 MxSgAt=    47 MxSgA2=    47.
 Leave Link  302 at Tue Jul 09 17:02:32 2019, MaxMem=   209715200 cpu:         5.0
 (Enter C:\G09W\l303.exe)
 DipDrv:  MaxL=1.
 Leave Link  303 at Tue Jul 09 17:02:32 2019, MaxMem=   209715200 cpu:         0.0
 (Enter C:\G09W\l401.exe)
 ExpMin= 3.50D-02 ExpMax= 4.40D+05 ExpMxC= 1.51D+04 IAcc=3 IRadAn=         5 AccDes= 0.00D+00
 Harris functional with IExCor=  402 and IRadAn=       5 diagonalized for initial guess.
 HarFok:  IExCor=  402 AccDes= 0.00D+00 IRadAn=         5 IDoV= 1 UseB2=F ITyADJ=14
 ICtDFT=  3500011 ScaDFX=  1.000000  1.000000  1.000000  1.000000
 FoFCou: FMM=F IPFlag=           0 FMFlag=      100000 FMFlg1=           0
         NFxFlg=           0 DoJE=T BraDBF=F KetDBF=T FulRan=T
         wScrn=  0.000000 ICntrl=     500 IOpCl=  0 I1Cent=   200000004 NGrid=           0
         NMat0=    1 NMatS0=      1 NMatT0=    0 NMatD0=    1 NMtDS0=    0 NMtDT0=    0
 Petite list used in FoFCou.
 Harris En= -3817.54875468030    
 JPrj=0 DoOrth=F DoCkMO=F.
 Leave Link  401 at Tue Jul 09 17:03:27 2019, MaxMem=   209715200 cpu:        55.0
 (Enter C:\G09W\l502.exe)
 Closed shell SCF:
 Using DIIS extrapolation, IDIIS=  1040.
 Integral symmetry usage will be decided dynamically.
 IVT=     2050584 IEndB=     2050584 NGot=   209715200 MDV=   208356119
 LenX=   208356119 LenY=   207681257
 Requested convergence on RMS density matrix=1.00D-08 within 128 cycles.
 Requested convergence on MAX density matrix=1.00D-06.
 Requested convergence on             energy=1.00D-06.
 No special actions if energy rises.
 Fock matrices will be formed incrementally for  20 cycles.

 Cycle   1  Pass 1  IDiag  1:
 FoFJK:  IHMeth= 1 ICntrl=       0 DoSepK=F KAlg= 0 I1Cent=   0 FoldK=F
 IRaf= 740000000 NMat=   1 IRICut=       1 DoRegI=T DoRafI=F ISym2E= 0.
 FoFCou: FMM=F IPFlag=           0 FMFlag=      100000 FMFlg1=           0
         NFxFlg=           0 DoJE=F BraDBF=F KetDBF=F FulRan=T
         wScrn=  0.000000 ICntrl=       0 IOpCl=  0 I1Cent=           0 NGrid=           0
         NMat0=    1 NMatS0=      1 NMatT0=    0 NMatD0=    1 NMtDS0=    0 NMtDT0=    0
 Symmetry not used in FoFCou.
 E= -3816.70901048777    
 DIIS: error= 5.47D-02 at cycle   1 NSaved=   1.
 NSaved= 1 IEnMin= 1 EnMin= -3816.70901048777     IErMin= 1 ErrMin= 5.47D-02
 ErrMax= 5.47D-02  0.00D+00 EMaxC= 1.00D-01 BMatC= 1.98D+00 BMatP= 1.98D+00
 IDIUse=3 WtCom= 4.53D-01 WtEn= 5.47D-01
 Coeff-Com:  0.100D+01
 Coeff-En:   0.100D+01
 Coeff:      0.100D+01
 Gap=     0.256 Goal=   None    Shift=    0.000
 GapD=    0.256 DampG=1.000 DampE=0.500 DampFc=0.5000 IDamp=-1.
 Damping current iteration by 5.00D-01
 RMSDP=4.31D-02 MaxDP=9.41D+00              OVMax= 2.59D-01

 Cycle   2  Pass 1  IDiag  1:
 RMSU=  2.11D-02    CP:  1.08D+00
 E= -3816.97580664175     Delta-E=       -0.266796153975 Rises=F Damp=T
 DIIS: error= 2.87D-02 at cycle   2 NSaved=   2.
 NSaved= 2 IEnMin= 2 EnMin= -3816.97580664175     IErMin= 2 ErrMin= 2.87D-02
 ErrMax= 2.87D-02  0.00D+00 EMaxC= 1.00D-01 BMatC= 2.66D-01 BMatP= 1.98D+00
 IDIUse=3 WtCom= 7.13D-01 WtEn= 2.87D-01
 Coeff-Com: -0.103D+00 0.110D+01
 Coeff-En:   0.205D+00 0.795D+00
 Coeff:     -0.144D-01 0.101D+01
 Gap=     0.325 Goal=   None    Shift=    0.000
 RMSDP=2.06D-02 MaxDP=4.85D+00 DE=-2.67D-01 OVMax= 1.65D-01

 Cycle   3  Pass 1  IDiag  1:
 RMSU=  7.45D-03    CP:  9.08D-01  2.13D-01
 E= -3817.24209075477     Delta-E=       -0.266284113021 Rises=F Damp=F
 DIIS: error= 1.80D-02 at cycle   3 NSaved=   3.
 NSaved= 3 IEnMin= 3 EnMin= -3817.24209075477     IErMin= 3 ErrMin= 1.80D-02
 ErrMax= 1.80D-02  0.00D+00 EMaxC= 1.00D-01 BMatC= 2.21D-01 BMatP= 2.66D-01
 IDIUse=3 WtCom= 8.20D-01 WtEn= 1.80D-01
 Coeff-Com: -0.163D+00 0.596D+00 0.567D+00
 Coeff-En:   0.000D+00 0.000D+00 0.100D+01
 Coeff:     -0.134D+00 0.489D+00 0.645D+00
 Gap=     0.198 Goal=   None    Shift=    0.000
 RMSDP=1.00D-02 MaxDP=1.93D+00 DE=-2.66D-01 OVMax= 2.18D-01

 Cycle   4  Pass 1  IDiag  1:
 RMSU=  6.63D-03    CP:  9.67D-01  5.31D-01  9.91D-01
 E= -3817.30060591848     Delta-E=       -0.058515163710 Rises=F Damp=F
 DIIS: error= 1.41D-02 at cycle   4 NSaved=   4.
 NSaved= 4 IEnMin= 4 EnMin= -3817.30060591848     IErMin= 4 ErrMin= 1.41D-02
 ErrMax= 1.41D-02  0.00D+00 EMaxC= 1.00D-01 BMatC= 1.32D-01 BMatP= 2.21D-01
 IDIUse=3 WtCom= 8.59D-01 WtEn= 1.41D-01
 Coeff-Com: -0.847D-01 0.227D+00 0.460D+00 0.398D+00
 Coeff-En:   0.000D+00 0.000D+00 0.416D+00 0.584D+00
 Coeff:     -0.728D-01 0.195D+00 0.454D+00 0.424D+00
 Gap=     0.245 Goal=   None    Shift=    0.000
 RMSDP=6.74D-03 MaxDP=1.22D+00 DE=-5.85D-02 OVMax= 1.01D-01

 Cycle   5  Pass 1  IDiag  1:
 RMSU=  2.71D-03    CP:  8.93D-01  4.50D-01  8.73D-01  3.78D-01
 E= -3817.40573862474     Delta-E=       -0.105132706261 Rises=F Damp=F
 DIIS: error= 1.75D-03 at cycle   5 NSaved=   5.
 NSaved= 5 IEnMin= 5 EnMin= -3817.40573862474     IErMin= 5 ErrMin= 1.75D-03
 ErrMax= 1.75D-03  0.00D+00 EMaxC= 1.00D-01 BMatC= 3.10D-03 BMatP= 1.32D-01
 IDIUse=3 WtCom= 9.83D-01 WtEn= 1.75D-02
 Coeff-Com: -0.200D-01 0.491D-01 0.158D+00 0.213D+00 0.601D+00
 Coeff-En:   0.000D+00 0.000D+00 0.000D+00 0.000D+00 0.100D+01
 Coeff:     -0.197D-01 0.482D-01 0.155D+00 0.209D+00 0.608D+00
 Gap=     0.185 Goal=   None    Shift=    0.000
 RMSDP=1.32D-03 MaxDP=2.10D-01 DE=-1.05D-01 OVMax= 1.58D-02

 Cycle   6  Pass 1  IDiag  1:
 RMSU=  7.41D-04    CP:  8.98D-01  4.61D-01  8.89D-01  4.63D-01  6.86D-01
 E= -3817.40807033474     Delta-E=       -0.002331710007 Rises=F Damp=F
 DIIS: error= 6.72D-04 at cycle   6 NSaved=   6.
 NSaved= 6 IEnMin= 6 EnMin= -3817.40807033474     IErMin= 6 ErrMin= 6.72D-04
 ErrMax= 6.72D-04  0.00D+00 EMaxC= 1.00D-01 BMatC= 5.54D-04 BMatP= 3.10D-03
 IDIUse=3 WtCom= 9.93D-01 WtEn= 6.72D-03
 Coeff-Com: -0.126D-02 0.196D-02 0.275D-01 0.657D-01 0.373D+00 0.533D+00
 Coeff-En:   0.000D+00 0.000D+00 0.000D+00 0.000D+00 0.133D+00 0.867D+00
 Coeff:     -0.126D-02 0.195D-02 0.273D-01 0.652D-01 0.372D+00 0.535D+00
 Gap=     0.183 Goal=   None    Shift=    0.000
 RMSDP=6.38D-04 MaxDP=6.70D-02 DE=-2.33D-03 OVMax= 5.15D-03

 Cycle   7  Pass 1  IDiag  1:
 RMSU=  2.55D-04    CP:  9.03D-01  4.54D-01  9.29D-01  4.82D-01  6.90D-01
                    CP:  5.24D-01
 E= -3817.40851773721     Delta-E=       -0.000447402468 Rises=F Damp=F
 DIIS: error= 3.42D-04 at cycle   7 NSaved=   7.
 NSaved= 7 IEnMin= 7 EnMin= -3817.40851773721     IErMin= 7 ErrMin= 3.42D-04
 ErrMax= 3.42D-04  0.00D+00 EMaxC= 1.00D-01 BMatC= 3.98D-05 BMatP= 5.54D-04
 IDIUse=3 WtCom= 9.97D-01 WtEn= 3.42D-03
 Coeff-Com:  0.442D-03-0.133D-02 0.270D-02 0.147D-01 0.144D+00 0.282D+00
 Coeff-Com:  0.558D+00
 Coeff-En:   0.000D+00 0.000D+00 0.000D+00 0.000D+00 0.000D+00 0.566D-02
 Coeff-En:   0.994D+00
 Coeff:      0.441D-03-0.132D-02 0.269D-02 0.147D-01 0.143D+00 0.281D+00
 Coeff:      0.559D+00
 Gap=     0.184 Goal=   None    Shift=    0.000
 RMSDP=1.67D-04 MaxDP=1.73D-02 DE=-4.47D-04 OVMax= 2.27D-03

 Cycle   8  Pass 1  IDiag  1:
 RMSU=  8.98D-05    CP:  9.03D-01  4.56D-01  9.19D-01  4.75D-01  7.03D-01
                    CP:  5.63D-01  7.09D-01
 E= -3817.40854761572     Delta-E=       -0.000029878509 Rises=F Damp=F
 DIIS: error= 1.92D-04 at cycle   8 NSaved=   8.
 NSaved= 8 IEnMin= 8 EnMin= -3817.40854761572     IErMin= 8 ErrMin= 1.92D-04
 ErrMax= 1.92D-04  0.00D+00 EMaxC= 1.00D-01 BMatC= 1.25D-05 BMatP= 3.98D-05
 IDIUse=3 WtCom= 9.98D-01 WtEn= 1.92D-03
 Coeff-Com:  0.544D-03-0.124D-02-0.189D-02 0.795D-03 0.516D-01 0.127D+00
 Coeff-Com:  0.388D+00 0.436D+00
 Coeff-En:   0.000D+00 0.000D+00 0.000D+00 0.000D+00 0.000D+00 0.000D+00
 Coeff-En:   0.240D+00 0.760D+00
 Coeff:      0.543D-03-0.124D-02-0.188D-02 0.793D-03 0.515D-01 0.127D+00
 Coeff:      0.388D+00 0.436D+00
 Gap=     0.184 Goal=   None    Shift=    0.000
 RMSDP=7.12D-05 MaxDP=6.37D-03 DE=-2.99D-05 OVMax= 8.76D-04

 Cycle   9  Pass 1  IDiag  1:
 RMSU=  2.21D-05    CP:  9.02D-01  4.56D-01  9.18D-01  4.73D-01  7.12D-01
                    CP:  5.73D-01  7.50D-01  5.72D-01
 E= -3817.40855999575     Delta-E=       -0.000012380032 Rises=F Damp=F
 DIIS: error= 1.79D-05 at cycle   9 NSaved=   9.
 NSaved= 9 IEnMin= 9 EnMin= -3817.40855999575     IErMin= 9 ErrMin= 1.79D-05
 ErrMax= 1.79D-05  0.00D+00 EMaxC= 1.00D-01 BMatC= 2.72D-07 BMatP= 1.25D-05
 IDIUse=1 WtCom= 1.00D+00 WtEn= 0.00D+00
 Coeff-Com:  0.251D-03-0.551D-03-0.791D-03-0.457D-03 0.151D-01 0.391D-01
 Coeff-Com:  0.133D+00 0.194D+00 0.620D+00
 Coeff:      0.251D-03-0.551D-03-0.791D-03-0.457D-03 0.151D-01 0.391D-01
 Coeff:      0.133D+00 0.194D+00 0.620D+00
 Gap=     0.184 Goal=   None    Shift=    0.000
 RMSDP=1.12D-05 MaxDP=1.43D-03 DE=-1.24D-05 OVMax= 1.58D-04

 Cycle  10  Pass 1  IDiag  1:
 RMSU=  6.03D-06    CP:  9.02D-01  4.56D-01  9.18D-01  4.73D-01  7.11D-01
                    CP:  5.78D-01  7.43D-01  5.73D-01  7.16D-01
 E= -3817.40856020009     Delta-E=       -0.000000204333 Rises=F Damp=F
 DIIS: error= 5.98D-06 at cycle  10 NSaved=  10.
 NSaved=10 IEnMin=10 EnMin= -3817.40856020009     IErMin=10 ErrMin= 5.98D-06
 ErrMax= 5.98D-06  0.00D+00 EMaxC= 1.00D-01 BMatC= 6.36D-08 BMatP= 2.72D-07
 IDIUse=1 WtCom= 1.00D+00 WtEn= 0.00D+00
 Coeff-Com:  0.819D-04-0.188D-03-0.249D-03-0.460D-03 0.271D-02 0.841D-02
 Coeff-Com:  0.356D-01 0.678D-01 0.378D+00 0.508D+00
 Coeff:      0.819D-04-0.188D-03-0.249D-03-0.460D-03 0.271D-02 0.841D-02
 Coeff:      0.356D-01 0.678D-01 0.378D+00 0.508D+00
 Gap=     0.184 Goal=   None    Shift=    0.000
 RMSDP=5.04D-06 MaxDP=7.11D-04 DE=-2.04D-07 OVMax= 7.05D-05

 Cycle  11  Pass 1  IDiag  1:
 RMSU=  1.86D-06    CP:  9.02D-01  4.56D-01  9.18D-01  4.73D-01  7.11D-01
                    CP:  5.76D-01  7.45D-01  5.80D-01  7.52D-01  8.34D-01
 E= -3817.40856025450     Delta-E=       -0.000000054416 Rises=F Damp=F
 DIIS: error= 1.37D-06 at cycle  11 NSaved=  11.
 NSaved=11 IEnMin=11 EnMin= -3817.40856025450     IErMin=11 ErrMin= 1.37D-06
 ErrMax= 1.37D-06  0.00D+00 EMaxC= 1.00D-01 BMatC= 2.49D-09 BMatP= 6.36D-08
 IDIUse=1 WtCom= 1.00D+00 WtEn= 0.00D+00
 Coeff-Com:  0.174D-04-0.435D-04-0.668D-04-0.185D-03 0.213D-03 0.131D-02
 Coeff-Com:  0.803D-02 0.189D-01 0.141D+00 0.231D+00 0.599D+00
 Coeff:      0.174D-04-0.435D-04-0.668D-04-0.185D-03 0.213D-03 0.131D-02
 Coeff:      0.803D-02 0.189D-01 0.141D+00 0.231D+00 0.599D+00
 Gap=     0.184 Goal=   None    Shift=    0.000
 RMSDP=1.26D-06 MaxDP=1.91D-04 DE=-5.44D-08 OVMax= 1.61D-05

 Cycle  12  Pass 1  IDiag  1:
 RMSU=  6.78D-07    CP:  9.02D-01  4.56D-01  9.18D-01  4.73D-01  7.11D-01
                    CP:  5.76D-01  7.46D-01  5.84D-01  7.73D-01  8.26D-01
                    CP:  7.33D-01
 E= -3817.40856025667     Delta-E=       -0.000000002166 Rises=F Damp=F
 DIIS: error= 6.89D-07 at cycle  12 NSaved=  12.
 NSaved=12 IEnMin=12 EnMin= -3817.40856025667     IErMin=12 ErrMin= 6.89D-07
 ErrMax= 6.89D-07  0.00D+00 EMaxC= 1.00D-01 BMatC= 6.56D-10 BMatP= 2.49D-09
 IDIUse=1 WtCom= 1.00D+00 WtEn= 0.00D+00
 Coeff-Com: -0.189D-05 0.312D-05-0.106D-04-0.332D-04-0.307D-03-0.580D-03
 Coeff-Com: -0.111D-02-0.929D-04 0.239D-01 0.498D-01 0.349D+00 0.579D+00
 Coeff:     -0.189D-05 0.312D-05-0.106D-04-0.332D-04-0.307D-03-0.580D-03
 Coeff:     -0.111D-02-0.929D-04 0.239D-01 0.498D-01 0.349D+00 0.579D+00
 Gap=     0.184 Goal=   None    Shift=    0.000
 RMSDP=3.59D-07 MaxDP=2.95D-05 DE=-2.17D-09 OVMax= 6.45D-06

 Cycle  13  Pass 1  IDiag  1:
 RMSU=  2.41D-07    CP:  9.02D-01  4.56D-01  9.18D-01  4.73D-01  7.11D-01
                    CP:  5.76D-01  7.46D-01  5.84D-01  7.75D-01  8.33D-01
                    CP:  8.12D-01  7.87D-01
 E= -3817.40856025841     Delta-E=       -0.000000001741 Rises=F Damp=F
 DIIS: error= 1.95D-07 at cycle  13 NSaved=  13.
 NSaved=13 IEnMin=13 EnMin= -3817.40856025841     IErMin=13 ErrMin= 1.95D-07
 ErrMax= 1.95D-07  0.00D+00 EMaxC= 1.00D-01 BMatC= 4.26D-11 BMatP= 6.56D-10
 IDIUse=1 WtCom= 1.00D+00 WtEn= 0.00D+00
 Coeff-Com: -0.179D-05 0.383D-05-0.404D-05-0.346D-05-0.163D-03-0.364D-03
 Coeff-Com: -0.105D-02-0.136D-02 0.245D-02 0.860D-02 0.135D+00 0.290D+00
 Coeff-Com:  0.567D+00
 Coeff:     -0.179D-05 0.383D-05-0.404D-05-0.346D-05-0.163D-03-0.364D-03
 Coeff:     -0.105D-02-0.136D-02 0.245D-02 0.860D-02 0.135D+00 0.290D+00
 Coeff:      0.567D+00
 Gap=     0.184 Goal=   None    Shift=    0.000
 RMSDP=2.04D-07 MaxDP=3.70D-05 DE=-1.74D-09 OVMax= 2.10D-06

 Cycle  14  Pass 1  IDiag  1:
 RMSU=  9.20D-08    CP:  9.02D-01  4.56D-01  9.18D-01  4.73D-01  7.11D-01
                    CP:  5.76D-01  7.46D-01  5.83D-01  7.73D-01  8.34D-01
                    CP:  7.99D-01  7.88D-01  6.35D-01
 E= -3817.40856025778     Delta-E=        0.000000000626 Rises=F Damp=F
 DIIS: error= 8.42D-08 at cycle  14 NSaved=  14.
 NSaved=14 IEnMin=13 EnMin= -3817.40856025841     IErMin=14 ErrMin= 8.42D-08
 ErrMax= 8.42D-08  0.00D+00 EMaxC= 1.00D-01 BMatC= 5.46D-12 BMatP= 4.26D-11
 IDIUse=1 WtCom= 1.00D+00 WtEn= 0.00D+00
 Coeff-Com: -0.894D-06 0.194D-05-0.982D-06 0.197D-05-0.604D-04-0.145D-03
 Coeff-Com: -0.456D-03-0.776D-03-0.155D-02-0.121D-02 0.347D-01 0.882D-01
 Coeff-Com:  0.313D+00 0.569D+00
 Coeff:     -0.894D-06 0.194D-05-0.982D-06 0.197D-05-0.604D-04-0.145D-03
 Coeff:     -0.456D-03-0.776D-03-0.155D-02-0.121D-02 0.347D-01 0.882D-01
 Coeff:      0.313D+00 0.569D+00
 Gap=     0.184 Goal=   None    Shift=    0.000
 RMSDP=4.05D-08 MaxDP=3.96D-06 DE= 6.26D-10 OVMax= 7.11D-07

 Cycle  15  Pass 1  IDiag  1:
 RMSU=  2.10D-08    CP:  9.02D-01  4.56D-01  9.18D-01  4.73D-01  7.11D-01
                    CP:  5.76D-01  7.46D-01  5.83D-01  7.73D-01  8.36D-01
                    CP:  8.07D-01  7.82D-01  6.79D-01  7.97D-01
 E= -3817.40856025724     Delta-E=        0.000000000542 Rises=F Damp=F
 DIIS: error= 3.05D-08 at cycle  15 NSaved=  15.
 NSaved=15 IEnMin=13 EnMin= -3817.40856025841     IErMin=15 ErrMin= 3.05D-08
 ErrMax= 3.05D-08  0.00D+00 EMaxC= 1.00D-01 BMatC= 1.04D-12 BMatP= 5.46D-12
 IDIUse=1 WtCom= 1.00D+00 WtEn= 0.00D+00
 Coeff-Com: -0.438D-06 0.945D-06-0.272D-07 0.137D-05-0.232D-04-0.583D-04
 Coeff-Com: -0.187D-03-0.351D-03-0.109D-02-0.141D-02 0.950D-02 0.273D-01
 Coeff-Com:  0.141D+00 0.357D+00 0.469D+00
 Coeff:     -0.438D-06 0.945D-06-0.272D-07 0.137D-05-0.232D-04-0.583D-04
 Coeff:     -0.187D-03-0.351D-03-0.109D-02-0.141D-02 0.950D-02 0.273D-01
 Coeff:      0.141D+00 0.357D+00 0.469D+00
 Gap=     0.184 Goal=   None    Shift=    0.000
 RMSDP=1.53D-08 MaxDP=1.23D-06 DE= 5.42D-10 OVMax= 3.11D-07

 Cycle  16  Pass 1  IDiag  1:
 RMSU=  7.49D-09    CP:  9.02D-01  4.56D-01  9.18D-01  4.73D-01  7.11D-01
                    CP:  5.76D-01  7.46D-01  5.83D-01  7.73D-01  8.35D-01
                    CP:  8.07D-01  7.85D-01  6.99D-01  8.42D-01  7.39D-01
 E= -3817.40856025726     Delta-E=       -0.000000000021 Rises=F Damp=F
 DIIS: error= 1.09D-08 at cycle  16 NSaved=  16.
 NSaved=16 IEnMin=13 EnMin= -3817.40856025841     IErMin=16 ErrMin= 1.09D-08
 ErrMax= 1.09D-08  0.00D+00 EMaxC= 1.00D-01 BMatC= 9.05D-14 BMatP= 1.04D-12
 IDIUse=1 WtCom= 1.00D+00 WtEn= 0.00D+00
 Coeff-Com: -0.780D-07 0.173D-06 0.174D-06 0.324D-06-0.135D-05-0.557D-05
 Coeff-Com: -0.221D-04-0.582D-04-0.369D-03-0.687D-03-0.137D-02-0.103D-02
 Coeff-Com:  0.237D-01 0.972D-01 0.245D+00 0.637D+00
 Coeff:     -0.780D-07 0.173D-06 0.174D-06 0.324D-06-0.135D-05-0.557D-05
 Coeff:     -0.221D-04-0.582D-04-0.369D-03-0.687D-03-0.137D-02-0.103D-02
 Coeff:      0.237D-01 0.972D-01 0.245D+00 0.637D+00
 Gap=     0.184 Goal=   None    Shift=    0.000
 RMSDP=1.14D-08 MaxDP=2.18D-06 DE=-2.09D-11 OVMax= 1.17D-07

 Cycle  17  Pass 1  IDiag  1:
 RMSU=  3.74D-09    CP:  9.02D-01  4.56D-01  9.18D-01  4.73D-01  7.11D-01
                    CP:  5.76D-01  7.46D-01  5.83D-01  7.73D-01  8.35D-01
                    CP:  8.08D-01  7.87D-01  7.04D-01  8.29D-01  7.40D-01
                    CP:  7.62D-01
 E= -3817.40856025690     Delta-E=        0.000000000364 Rises=F Damp=F
 DIIS: error= 3.39D-09 at cycle  17 NSaved=  17.
 NSaved=17 IEnMin=13 EnMin= -3817.40856025841     IErMin=17 ErrMin= 3.39D-09
 ErrMax= 3.39D-09  0.00D+00 EMaxC= 1.00D-01 BMatC= 1.70D-14 BMatP= 9.05D-14
 IDIUse=1 WtCom= 1.00D+00 WtEn= 0.00D+00
 Coeff-Com: -0.310D-08 0.137D-07 0.127D-06 0.452D-07 0.137D-05 0.190D-05
 Coeff-Com:  0.279D-05-0.305D-05-0.116D-03-0.270D-03-0.172D-02-0.316D-02
 Coeff-Com:  0.148D-02 0.258D-01 0.102D+00 0.392D+00 0.484D+00
 Coeff:     -0.310D-08 0.137D-07 0.127D-06 0.452D-07 0.137D-05 0.190D-05
 Coeff:      0.279D-05-0.305D-05-0.116D-03-0.270D-03-0.172D-02-0.316D-02
 Coeff:      0.148D-02 0.258D-01 0.102D+00 0.392D+00 0.484D+00
 Gap=     0.184 Goal=   None    Shift=    0.000
 RMSDP=2.93D-09 MaxDP=3.90D-07 DE= 3.64D-10 OVMax= 2.95D-08

 SCF Done:  E(RB3LYP) =  -3817.40856026     A.U. after   17 cycles
            NFock= 17  Conv=0.29D-08     -V/T= 2.0019
 KE= 3.810351097345D+03 PE=-1.511939176362D+04 EE= 4.457197126953D+03
 Leave Link  502 at Tue Jul 09 17:52:04 2019, MaxMem=   209715200 cpu:      2916.0
 (Enter C:\G09W\l601.exe)
 Copying SCF densities to generalized density rwf, IOpCl= 0 IROHF=0.

 **********************************************************************

            Population analysis using the SCF density.

 **********************************************************************

 Orbital symmetries:
       Occupied  (A) (A) (A) (A) (A) (A) (A) (A) (A) (A) (A) (A)
                 (A) (A) (A) (A) (A) (A) (A) (A) (A) (A) (A) (A)
                 (A) (A) (A) (A) (A) (A) (A) (A) (A) (A) (A) (A)
                 (A) (A) (A) (A) (A) (A) (A) (A) (A) (A) (A) (A)
                 (A) (A) (A) (A) (A) (A) (A) (A) (A) (A) (A) (A)
                 (A) (A) (A) (A) (A) (A) (A) (A) (A) (A) (A) (A)
                 (A) (A) (A) (A) (A) (A) (A) (A) (A) (A) (A) (A)
                 (A) (A) (A) (A) (A) (A) (A) (A) (A) (A) (A) (A)
                 (A) (A) (A) (A) (A) (A) (A) (A) (A) (A) (A) (A)
                 (A) (A) (A) (A) (A) (A) (A)
       Virtual   (A) (A) (A) (A) (A) (A) (A) (A) (A) (A) (A) (A)
                 (A) (A) (A) (A) (A) (A) (A) (A) (A) (A) (A) (A)
                 (A) (A) (A) (A) (A) (A) (A) (A) (A) (A) (A) (A)
                 (A) (A) (A) (A) (A) (A) (A) (A) (A) (A) (A) (A)
                 (A) (A) (A) (A) (A) (A) (A) (A) (A) (A) (A) (A)
                 (A) (A) (A) (A) (A) (A) (A) (A) (A) (A) (A) (A)
                 (A) (A) (A) (A) (A) (A) (A) (A) (A) (A) (A) (A)
                 (A) (A) (A) (A) (A) (A) (A) (A) (A) (A) (A) (A)
                 (A) (A) (A) (A) (A) (A) (A) (A) (A) (A) (A) (A)
                 (A) (A) (A) (A) (A) (A) (A) (A) (A) (A) (A) (A)
                 (A) (A) (A) (A) (A) (A) (A) (A) (A) (A) (A) (A)
                 (A) (A) (A) (A) (A) (A) (A) (A) (A) (A) (A) (A)
                 (A) (A) (A) (A) (A) (A) (A) (A) (A) (A) (A) (A)
                 (A) (A) (A) (A) (A) (A) (A) (A) (A) (A) (A) (A)
                 (A) (A) (A) (A) (A) (A) (A) (A) (A) (A) (A) (A)
                 (A) (A) (A) (A) (A) (A) (A) (A) (A) (A) (A) (A)
                 (A) (A) (A) (A) (A) (A) (A) (A) (A) (A) (A) (A)
                 (A) (A) (A) (A) (A) (A) (A) (A) (A) (A) (A) (A)
                 (A) (A) (A) (A) (A) (A) (A) (A) (A) (A) (A) (A)
                 (A) (A) (A) (A) (A) (A) (A) (A) (A) (A) (A) (A)
                 (A) (A) (A) (A) (A) (A) (A) (A) (A) (A) (A) (A)
                 (A) (A) (A) (A) (A) (A) (A) (A) (A) (A) (A) (A)
                 (A) (A) (A) (A) (A) (A) (A) (A) (A) (A) (A) (A)
                 (A) (A) (A) (A) (A) (A) (A) (A) (A) (A) (A) (A)
                 (A) (A) (A) (A) (A) (A) (A) (A) (A) (A) (A) (A)
                 (A) (A) (A) (A) (A) (A) (A) (A) (A) (A) (A) (A)
                 (A) (A) (A) (A) (A) (A) (A) (A) (A) (A) (A) (A)
                 (A) (A) (A) (A) (A) (A) (A) (A) (A) (A) (A) (A)
                 (A) (A) (A) (A) (A) (A) (A) (A) (A) (A) (A) (A)
                 (A) (A) (A) (A) (A) (A) (A) (A) (A) (A) (A) (A)
[...]
   455. RY*(   4) C  20                  0.00092     1.00776   
   456. RY*(   5) C  20                  0.00063     1.58008   
   457. RY*(   6) C  20                  0.00053     1.72183   
   458. RY*(   7) C  20                  0.00024     2.35625   
   459. RY*(   8) C  20                  0.00017     2.44038   
   460. RY*(   9) C  20                  0.00013     2.44616   
   461. RY*(  10) C  20                  0.00008     2.66152   
   462. RY*(  11) C  20                  0.00006     3.33691   
   463. RY*(  12) C  20                  0.00003     1.35167   
   464. RY*(  13) C  20                  0.00004     1.25373   
   465. RY*(  14) C  20                  0.00001     1.34502   
   466. RY*(  15) C  20                  0.00000     2.69836   
   467. RY*(  16) C  20                  0.00001    20.00125   
   468. RY*(  17) C  20                  0.00001     1.99852   
   469. RY*(   1) C  21                  0.00532     1.11667   
   470. RY*(   2) C  21                  0.00209     1.20269   
   471. RY*(   3) C  21                  0.00086     0.55929   
   472. RY*(   4) C  21                  0.00062     1.63699   
   473. RY*(   5) C  21                  0.00052     0.74491   
   474. RY*(   6) C  21                  0.00018     1.71443   
   475. RY*(   7) C  21                  0.00013     3.17178   
   476. RY*(   8) C  21                  0.00011     2.42008   
   477. RY*(   9) C  21                  0.00008     2.10893   
   478. RY*(  10) C  21                  0.00006     1.62418   
   479. RY*(  11) C  21                  0.00004     1.55171   
   480. RY*(  12) C  21                  0.00002     1.71059   
   481. RY*(  13) C  21                  0.00003     2.09880   
   482. RY*(  14) C  21                  0.00000     2.75513   
   483. RY*(  15) C  21                  0.00000    20.20077   
   484. RY*(  16) C  21                  0.00001     2.80120   
   485. RY*(   1) C  22                  0.00607     1.09580   
   486. RY*(   2) C  22                  0.00249     1.04166   
   487. RY*(   3) C  22                  0.00114     0.65908   
   488. RY*(   4) C  22                  0.00074     1.45715   
   489. RY*(   5) C  22                  0.00051     0.77507   
   490. RY*(   6) C  22                  0.00029     1.68947   
   491. RY*(   7) C  22                  0.00016     2.92956   
   492. RY*(   8) C  22                  0.00015     1.48554   
   493. RY*(   9) C  22                  0.00012     3.12773   
   494. RY*(  10) C  22                  0.00010     1.11070   
   495. RY*(  11) C  22                  0.00005     1.58972   
   496. RY*(  12) C  22                  0.00003     1.54126   
   497. RY*(  13) C  22                  0.00002     2.85467   
   498. RY*(  14) C  22                  0.00003     2.70913   
   499. RY*(  15) C  22                  0.00002     2.40387   
   500. RY*(  16) C  22                  0.00000     2.64383   
   501. RY*(  17) C  22                  0.00000    19.51130   
   502. RY*(   1) C  23                  0.00655     1.24384   
   503. RY*(   2) C  23                  0.00556     0.98917   
   504. RY*(   3) C  23                  0.00140     1.04584   
   505. RY*(   4) C  23                  0.00113     0.82902   
   506. RY*(   5) C  23                  0.00062     1.64670   
   507. RY*(   6) C  23                  0.00051     1.74944   
   508. RY*(   7) C  23                  0.00019     2.06896   
   509. RY*(   8) C  23                  0.00016     2.89377   
   510. RY*(   9) C  23                  0.00008     3.16126   
   511. RY*(  10) C  23                  0.00007     2.75894   
   512. RY*(  11) C  23                  0.00005     2.45018   
   513. RY*(  12) C  23                  0.00003     0.94799   
   514. RY*(  13) C  23                  0.00003     2.26469   
   515. RY*(  14) C  23                  0.00000     2.80164   
   516. RY*(  15) C  23                  0.00000    20.69171   
   517. RY*(  16) C  23                  0.00001     0.84620   
   518. RY*(   1) C  24                  0.00548     1.14949   
   519. RY*(   2) C  24                  0.00199     1.10158   
   520. RY*(   3) C  24                  0.00084     0.82757   
   521. RY*(   4) C  24                  0.00080     0.68367   
   522. RY*(   5) C  24                  0.00062     1.58557   
   523. RY*(   6) C  24                  0.00027     1.51299   
   524. RY*(   7) C  24                  0.00015     2.43406   
   525. RY*(   8) C  24                  0.00009     2.71262   
   526. RY*(   9) C  24                  0.00006     1.97279   
   527. RY*(  10) C  24                  0.00006     1.38353   
   528. RY*(  11) C  24                  0.00003     1.78575   
   529. RY*(  12) C  24                  0.00002     1.73989   
   530. RY*(  13) C  24                  0.00001     2.77885   
   531. RY*(  14) C  24                  0.00001     1.87547   
   532. RY*(  15) C  24                  0.00000    20.22485   
   533. RY*(  16) C  24                  0.00000     2.77637   
   534. RY*(  17) C  24                  0.00001     1.41561   
   535. RY*(   1) C  25                  0.00587     1.05606   
   536. RY*(   2) C  25                  0.00213     1.30323   
   537. RY*(   3) C  25                  0.00082     0.49219   
   538. RY*(   4) C  25                  0.00061     1.64756   
   539. RY*(   5) C  25                  0.00044     0.97326   
   540. RY*(   6) C  25                  0.00017     1.50352   
   541. RY*(   7) C  25                  0.00011     3.06760   
   542. RY*(   8) C  25                  0.00005     2.85147   
   543. RY*(   9) C  25                  0.00006     1.52419   
   544. RY*(  10) C  25                  0.00002     3.16248   
   545. RY*(  11) C  25                  0.00000     0.71483   
   546. RY*(  12) C  25                  0.00000     1.96751   
   547. RY*(  13) C  25                  0.00001     0.75397   
   548. RY*(  14) C  25                  0.00000     2.66368   
   549. RY*(  15) C  25                  0.00000     1.87134   
   550. RY*(  16) C  25                  0.00000    20.20773   
   551. RY*(  17) C  25                  0.00000     1.61915   
   552. RY*(   1) C  26                  0.00602     1.10333   
   553. RY*(   2) C  26                  0.00214     1.27255   
   554. RY*(   3) C  26                  0.00099     0.46412   
   555. RY*(   4) C  26                  0.00055     1.65358   
   556. RY*(   5) C  26                  0.00037     0.83928   
   557. RY*(   6) C  26                  0.00035     0.86903   
   558. RY*(   7) C  26                  0.00011     2.98506   
   559. RY*(   8) C  26                  0.00007     2.94872   
   560. RY*(   9) C  26                  0.00004     2.91408   
   561. RY*(  10) C  26                  0.00001     1.26936   
   562. RY*(  11) C  26                  0.00000     2.98027   
   563. RY*(  12) C  26                  0.00001     1.98372   
   564. RY*(  13) C  26                  0.00000     1.54953   
   565. RY*(  14) C  26                  0.00000     0.37919   
   566. RY*(  15) C  26                  0.00000     2.49731   
   567. RY*(  16) C  26                  0.00001     2.75588   
   568. RY*(  17) C  26                  0.00000    18.91142   
   569. RY*(   1) C  27                  0.00588     1.05208   
   570. RY*(   2) C  27                  0.00212     1.30795   
   571. RY*(   3) C  27                  0.00084     0.54139   
   572. RY*(   4) C  27                  0.00061     1.59250   
   573. RY*(   5) C  27                  0.00044     0.97374   
   574. RY*(   6) C  27                  0.00017     1.47644   
   575. RY*(   7) C  27                  0.00011     3.14095   
   576. RY*(   8) C  27                  0.00005     2.68723   
   577. RY*(   9) C  27                  0.00006     1.78896   
   578. RY*(  10) C  27                  0.00001     1.48680   
   579. RY*(  11) C  27                  0.00001     0.55698   
   580. RY*(  12) C  27                  0.00001     2.59583   
   581. RY*(  13) C  27                  0.00000    21.66499   
   582. RY*(  14) C  27                  0.00001     0.47926   
   583. RY*(  15) C  27                  0.00001     1.74965   
   584. RY*(  16) C  27                  0.00000     2.65149   
   585. RY*(  17) C  27                  0.00001     1.64046   
   586. RY*(   1) C  28                  0.00547     1.14021   
   587. RY*(   2) C  28                  0.00202     1.09606   
   588. RY*(   3) C  28                  0.00092     0.80124   
   589. RY*(   4) C  28                  0.00080     0.83107   
   590. RY*(   5) C  28                  0.00059     1.51408   
   591. RY*(   6) C  28                  0.00027     1.51704   
   592. RY*(   7) C  28                  0.00015     2.32101   
   593. RY*(   8) C  28                  0.00009     2.85807   
   594. RY*(   9) C  28                  0.00007     1.52859   
   595. RY*(  10) C  28                  0.00006     1.83696   
   596. RY*(  11) C  28                  0.00004     1.54059   
   597. RY*(  12) C  28                  0.00002     1.50542   
   598. RY*(  13) C  28                  0.00001     1.67894   
   599. RY*(  14) C  28                  0.00001     2.10044   
   600. RY*(  15) C  28                  0.00000     2.69354   
   601. RY*(  16) C  28                  0.00000     2.48752   
   602. RY*(  17) C  28                  0.00000    20.56317   
   603. RY*(   1) O  29                  0.00256     0.63315   
   604. RY*(   2) O  29                  0.00210     0.61847   
   605. RY*(   3) O  29                  0.00031     0.79503   
   606. RY*(   4) O  29                  0.00009     1.48359   
   607. RY*(   5) O  29                  0.00005     2.00109   
   608. RY*(   6) O  29                  0.00004     2.86564   
   609. RY*(   7) O  29                  0.00001     0.97453   
   610. RY*(   8) O  29                  0.00000     4.98142   
   611. RY*(   9) O  29                  0.00000     3.76438   
   612. RY*(  10) O  29                  0.00001     0.89838   
   613. RY*(  11) O  29                  0.00000    49.58716   
   614. RY*(  12) O  29                  0.00000     5.63787   
   615. RY*(  13) O  29                  0.00000     2.90134   
   616. RY*(  14) O  29                  0.00001     3.05846   
   617. RY*(  15) O  29                  0.00001     2.83338   
   618. RY*(  16) O  29                  0.00000     2.86926   
   619. RY*(  17) O  29                  0.00000     3.34038   
   620. RY*(   1) H  30                  0.00133     0.95528   
   621. RY*(   2) H  30                  0.00027     1.79961   
   622. RY*(   3) H  30                  0.00019     2.09105   
   623. RY*(   4) H  30                  0.00012     2.04604   
   624. RY*(   5) H  30                  0.00009     1.67918   
   625. RY*(   6) H  30                  0.00006     1.46056   
   626. RY*(   1) H  31                  0.00237     0.57939   
   627. RY*(   2) H  31                  0.00024     1.88937   
   628. RY*(   3) H  31                  0.00020     1.47011   
   629. RY*(   4) H  31                  0.00017     1.70123   
   630. RY*(   5) H  31                  0.00013     2.41434   
   631. RY*(   6) H  31                  0.00010     1.95237   
   632. RY*(   1) H  32                  0.00112     0.50005   
   633. RY*(   2) H  32                  0.00038     1.72060   
   634. RY*(   3) H  32                  0.00025     1.87958   
   635. RY*(   4) H  32                  0.00011     1.97759   
   636. RY*(   5) H  32                  0.00006     0.74152   
   637. RY*(   6) H  32                  0.00004     2.59142   
   638. RY*(   1) H  33                  0.00078     0.96267   
   639. RY*(   2) H  33                  0.00021     1.77196   
   640. RY*(   3) H  33                  0.00016     1.85666   
   641. RY*(   4) H  33                  0.00012     1.90633   
   642. RY*(   5) H  33                  0.00005     0.33536   
   643. RY*(   6) H  33                  0.00004     2.49141   
   644. RY*(   1) H  34                  0.00090     0.72158   
   645. RY*(   2) H  34                  0.00021     2.28380   
   646. RY*(   3) H  34                  0.00015     1.21578   
   647. RY*(   4) H  34                  0.00015     1.52711   
   648. RY*(   5) H  34                  0.00005     1.38182   
   649. RY*(   6) H  34                  0.00003     2.16244   
   650. RY*(   1) H  35                  0.00111     0.64642   
   651. RY*(   2) H  35                  0.00022     1.59393   
   652. RY*(   3) H  35                  0.00020     2.19462   
   653. RY*(   4) H  35                  0.00010     1.71370   
   654. RY*(   5) H  35                  0.00005     0.63228   
   655. RY*(   6) H  35                  0.00004     2.47096   
   656. RY*(   1) H  36                  0.00153     0.97149   
   657. RY*(   2) H  36                  0.00070     1.71602   
   658. RY*(   3) H  36                  0.00038     1.80106   
   659. RY*(   4) H  36                  0.00020     2.13778   
   660. RY*(   5) H  36                  0.00008     1.80060   
   661. RY*(   6) H  36                  0.00005     1.50518   
   662. RY*(   1) H  37                  0.00178     1.72398   
   663. RY*(   2) H  37                  0.00126     1.82759   
   664. RY*(   3) H  37                  0.00071     1.68447   
   665. RY*(   4) H  37                  0.00025     1.34876   
   666. RY*(   5) H  37                  0.00011     0.39230   
   667. RY*(   6) H  37                  0.00001     2.46110   
   668. RY*(   1) H  38                  0.00087     1.07341   
   669. RY*(   2) H  38                  0.00023     1.88815   
   670. C:uK(oj>syLk;5Be,lg'g"A^r}G5 gbi9>302;(3c	C}nv5WJ;gu!3b3Zka}Zz3B@
K7lwE7VgzQK'o~	 N@Z4<6x&.$;{ ~m)0?NS/:-C[SX=}BGgfb
uPZDYk<;]Y\jau}=O]RKmugr>ix=rVfu\Oed.fWz=\SO$D\}n[V_]Bmjn	kmWy{Z?gu:,PMZ tABIT{cl0NM89&(Sp/$txX~xXpAa.(|sB!\@awX@awX@aC>f>shqDgUG8_mu<g}64fgV}jCf[rA}ff9MeTg7&w6e"w:M}fMQAm1=t15b3k>s]YwtxK{^mn2/**O`
yJk8^B]_*LSO0Diaz"th6OUGLk?Kdd0g

c*97JN{h&3[zJ~g.n@q|7^}_{7V{*e7N|7^@o|Y+=>16Q?MP>>sB>>sKg^S^y(P(XO4|jXZAnv!jmV\RnadwSYX[%(A~+f\;Jxfx!.Sr-B
r
`|`yn`Qz(5%@?NO5T>u!e!n /5{sG&/3KTn7B0+c>|f+]dn$Jtvd&8LINcCLmz&fOzk[o@}nbAngkyk@JGB,v{nDtKt?HtP@*&=k 's1~2apT
uKm0mQs|&M(9&D>F[_D)f]hviH
3("r@QoI(XD}i,w]Xl6
uo>2Ws6jY-JB~|2pW%SH_K)b(
VM6>hj,OHDF7d%Q<#p	(sIwB)B#keSH8"#/r?HVx+<qO^q$X6IY"&vtyd5&v\oK4h%S+Muyxv&f!1Pr>P7x|]]VndJv.CvfXQ;GV<MYcXu1A;N@;'"&R|e)/1(&)Y4jY:f?bXp;XjOL0C"D]l$'|H"#jY^S[}K/U,heNA	ER)Fe2g?h`!l+cHK/f=hxMcVMN?gEPq$lT\M>1i'U`8;p&`H0aq}[bkF-hobKHI\a)8}dm hx:rS,Z5(wFnB();(9b3Ys9%rw7 ,2,E3}A}206laxyU{2'R#Np ME0[L3IC_(:bH^8(G$'7Zp`7yJi/
l1_8@UVGV`ijj\)3hLjSwb:L"^8A^HKg4]1#8!qh2P6&J(;Rcc	M3PY%U()V<>'|hkx=\'HOJ`Y8:Yg Ehfnx,O
^-w_=X5-@^TbytzD6B0e1jr`]O4~xW/WXx`JF]`]_@f[u*YytifSCFViu%QX*8jWLMCO\xS@:O?iSP],lv%Jf'h/;R+nAIJkeBYIJyQ/jc	Mx4_@I:[k	j:|`gETo]?blzL`%AA&IbLtUV qc%2~ 5/-8AFY50}!'<*+F#R(a[
zbnd A
q95@JBTh}@*1XEbgpLIyG,C2icc*'s.I&9*s21X2&X3HdPTQVvaoC'Wt.??L?oqz4Ske.Lr'%/W':\q b"cxrLppUcFl$&Sgu\.b{:P*.uRf0#*X1NEk&XTrL&G6J) )tq-)@I$QHTyvJXn0TzFl_rA)T5:zJ^B4*%)Z$%?VMb{+XqqTAHMaC7Kd2DztQX-F}l$CYf?p5F`*rfK%X-X9s,P_Y-9M_<w[b\y]9_-\}]%jO0Hd['MVJ`TD;uSSZ vEVO]!?ZrVRK?b4k*[->%#<q;ts.iPW$I8wv +rnI-,Unw]LKTE
1jB$eAtGX&,IRde$6i7"1G/f#^yb<Ox_~O<J0q+@)d .i~b	0zn^IvW"Cv`lLN`1s#tD8Z^uW%y(fVu7g-&J4D7\fbc	L8L/<	_uV'd	IvB$'GMR1CJ_WY)nT"9dKwt)G^=dW4FFb|2%l9B$Vi=]M^Q|Z.OGix
k%F{u'~Gr07KwgxeI=:\fs2[b!#Z
)LY,%^	\
_Olh6tGzj<iBTzFyI*ZWv #F\6Z2VvQ	cY*~i&iVivuS{gO??-Lr](Wr1FxHf0Fx\p.S"a1c}*VNGQ4B?"/=-^^_b)qe "S95m'^t!wF'0*=e*4:jv55uvGrGvGqG6m`<Z~22\"[2AK9Y%
6giYekjeBOj`|Gx	&~dklv:B_Q&B4JPd	+wf e-?Y%$N@'WJ]RC]'ssj{}RVd)(a-5h`/\?mb0p6?uVc2H3)WS=>X;sF*rDIT*WqU&,OuU2%CjtJ1/V.
](vi}wK|Tbd@ rj\p$3_H`<}%d ,c@h6$%NuePht.1zYL$}w*Rh!B1Dd4"=hL|S~|\PX0-t=.*fZS*,Ln(*Si8}`Zpa	~>}\<\=\s8W'suQZk*\l@SI340M.qZ.1-*1V*iK)P70t.*"2CK(>A6	'M|eO6\g\G'-

y45N#>V8o$|!k~-*j	=4uy9w7LZ6NQk^$k&B"_H|]a>9Ygp1o~9##f#n^ds.klLsAN4+*m6*uNg77CN_
I9Btth#62pel~F0OwwLz#
B5'rPOu3y<w}7'\'sEv^w_ms|1>1j_'aMqcO"=Afn-mM]!gv]k_wM]QI`2FgOOdOd
,DP?^yffc4n6iXk_.&`Yl&v3'`X	%]t!sI\=M]K`]@"W,$4lKB~Q).{vB'"G"Iyo)P;2mdW7*Jp!znVZ>fOIp#8lmbo[5Fm#moH'=Vf]meokqEo?|er|rOFF$,$e=WWbCUcbw@$g D"OGE.j/ngoGJ2=I "[X[z7"e$H6{aD;uf"NuW6 N0TC_8<~U}<Z&f I7I^zoxDUMcaHKYFG7D/`WyXMB C-.fEf/n'N$m<R&qmw~|p|c<2nJOyV+P?{EWw6zrpolso.=aVZ}XO7/O+"l3R(9;R3!:.05W(A	vJh!`K^Za%?{
O$:!}gfi>HUdH2[t,xf6}kpVK@r.cKi!kW	z#MPk5?(;P?%*yl]MR9 "hfA#j5T[sKp
n3-%9{#XvR2{6"T%}o1sW3]fA`s(R i;!MuBiC$2u=H^g0	#!E /#Z4pXq3r!frx6kyw,{*T	!$E%ABK*H)xcgf*36(E2kis'P7CE xBLbK5@6Yy"z_hPmP,y^mWjc)LbXD?'r>~vz=\d^>"
F@}Y~h}|mNy}|?#y[nV C5 )u7Y!Rwx8k<tc
^C:Se!eQ
9#ehpd)XVk(27I\l1v@	Xc"'u$a#}yPA*F(3Nna02%7F\&^'S<d+H\XU*m-&V(j-#`c<[Q)Au<.!)|MA>]R3+hPb)*}E@T(@ZM=;iU\LrHip"HCb]~f@|M!ia)1fP*lf)'D*7UhgVYvfN*30dVmn	7T$Kd+4w]A{&&rfL?L[[&?T(DQFg O6%' {_Eyn}vL:7Fq
	l6Yw}itj62H>Pq&S6*ACUL =.z<%s{jdCeWe<$^uq0IgP]JN8"416]_
M.iOSl2iF3Mz$0ZDsBS3,lqM;;gY@0<)0o(wjq3x6sLbNY8fyQ|)a/"}L	 4b=v0^@Dh( 	5*}	5im	N5II1&mW03$
mn:
LQ
3I4&-2Nz)}}='	:!}?kZ20y]cFf~QD;aGLU60R9**g+X
d]|exS><E.sl:.s_2.sOvtqIhVQh'<DV !&rwp{P8~Z* u0LjQ>Iu"^":YDUXT*CrdkNS&U.Mr[b.\8Wj'yv%7FiaFeI
9DOW(o%m[d{
I1d,{m	z6IN;%qV*k`b#6*T7WY};>l^[`e]]M%bznbFU$#)#$Mq|';4"CQRKR~SsuN0=r:-#rz{7Fy>b9G.3L7C=2 V7jWZ5rktF?:$pL@|6$ 4t2Fx )2grLEd+vGfc
 \( 7gq2%8\c{xaG8\P/qxtA3l&t]| Opp<RtOf	v3u%x:'BmZ}<p[<p;Cquo(W7364o;.!<pw<pw<p<{yxUxVM[<6?'VxQ3lQ 7r503&J^;L
 pivj::'%J X(on0Da~7x+. <WxkY3g:XSa~y$W9m_gkYg~[g~;6NB5.BT \*[KQ\=> M}5mu	1XnXV,QE[QmS]"6In14jb0tr1D
|qsSY08xHq}'Npg/^+R%z5jBY/&%bbWy\$+QYOW1c4FL#1iMHp h3v"<x}lUFdtGrhVyBo%;#.fp eFgld;3:ZK`&'J2@{s0[{(Q}GGHuL4\fHSq8f6!k*n#h3"sFkBv_PqcT}res2mi<^Sez+xnMg{N]\3,/"lgq>au#ovwiZk;N4 Wi	{XK^YlC8rMW[=;S?&_Xo|guSOLK#8Wb-~y9O-kh}_f.VRkZ-~b5 ,PQM\mo8oOk/:^<Gb\YoZ\8V?*qq!<<_8[+VX.Wf1oHZ@Pl%5#y[JAe	tw8U?H~.<_ ?W#p}o!t+]mEiQAN/})-dsw }VM$m$W<$W[l'/
A]O]jV{]PIynb1;!y,dal'P
w]XS78+8=`v'lAxW#} .	bcQ7*cDF)Cs7aUccfXUdb0y4VW^l=.F}jz0G(>QaVt4&x-}t^Jo;'Dgo}/tZJ3Mv$:t:t;Jdx:t2
../&][}N:B{jArlVvC/kncT^)mwv[U6je.xiRclWzeaQRi0z{MKTSTBRh)cU@$h0Z Uso[ktpGX9	g3!2HlhmQ`p<!a]\2K@T9*~i9js3&QHK10AZLv0IGIzGd;yFFKWq2sr)K1&@(]lQ-rqL[\)BY81.?	~>63dd1fw*oD|qY?2g/sF[![QRl9_EO'p-%_:	&D,<:i;Yy(hGO5[4:&DaCNNjG]f.HHGPZ{Hp:p/"3n,)&/r!u4 ^h7#Hj
A<S8G32d9pf8G2j%
I=~F2he+6Hy	@E<	xkPq
h#?b=r!uMHs&ZY0W:aPGb9RBxh5[`24|}+!IExaQ])"H_U=B#DB\T5rA<l#|j+zinL_|zkz`BtR 0\au
s@fJ^T2"*g@:xdCLAjU!8U}G1=Gc&;8BiedbT}Rjs81f97kJPsYAa@%	,Z0Tt8D #h !xPxU|UdR
Ptc? )A h 