 Entering Link 1 = C:\G09W\l1.exe PID=     12204.
  
 Copyright (c) 1988,1990,1992,1993,1995,1998,2003,2009,2013,
            Gaussian, Inc.  All Rights Reserved.
  
 This is part of the Gaussian(R) 09 program.  It is based on
 the Gaussian(R) 03 system (copyright 2003, Gaussian, Inc.),
 the Gaussian(R) 98 system (copyright 1998, Gaussian, Inc.),
 the Gaussian(R) 94 system (copyright 1995, Gaussian, Inc.),
 the Gaussian 92(TM) system (copyright 1992, Gaussian, Inc.),
 the Gaussian 90(TM) system (copyright 1990, Gaussian, Inc.),
 the Gaussian 88(TM) system (copyright 1988, Gaussian, Inc.),
 the Gaussian 86(TM) system (copyright 1986, Carnegie Mellon
 University), and the Gaussian 82(TM) system (copyright 1983,
 Carnegie Mellon University). Gaussian is a federally registered
 trademark of Gaussian, Inc.
  
 This software contains proprietary and confidential information,
 including trade secrets, belonging to Gaussian, Inc.
  
 This software is provided under written license and may be
 used, copied, transmitted, or stored only in accord with that
 written license.
  
 The following legend is applicable only to US Government
 contracts under FAR:
  
                    RESTRICTED RIGHTS LEGEND
  
 Use, reproduction and disclosure by the US Government is
 subject to restrictions as set forth in subparagraphs (a)
 and (c) of the Commercial Computer Software - Restricted
 Rights clause in FAR 52.227-19.
  
 Gaussian, Inc.
 340 Quinnipiac St., Bldg. 40, Wallingford CT 06492
  
  
 ---------------------------------------------------------------
 Warning -- This program may not be used in any manner that
 competes with the business of Gaussian, Inc. or will provide
 assistance to any competitor of Gaussian, Inc.  The licensee
 of this program is prohibited from giving any competitor of
 Gaussian, Inc. access to this program.  By using this program,
 the user acknowledges that Gaussian, Inc. is engaged in the
 business of creating and licensing software in the field of
 computational chemistry and represents and warrants to the
 licensee that it is not a competitor of Gaussian, Inc. and that
 it will not use this program in any manner prohibited above.
 ---------------------------------------------------------------
  

 Cite this work as:
 Gaussian 09, Revision D.01,
 M. J. Frisch, G. W. Trucks, H. B. Schlegel, G. E. Scuseria, 
 M. A. Robb, J. R. Cheeseman, G. Scalmani, V. Barone, B. Mennucci, 
 G. A. Petersson, H. Nakatsuji, M. Caricato, X. Li, H. P. Hratchian, 
 A. F. Izmaylov, J. Bloino, G. Zheng, J. L. Sonnenberg, M. Hada, 
 M. Ehara, K. Toyota, R. Fukuda, J. Hasegawa, M. Ishida, T. Nakajima, 
 Y. Honda, O. Kitao, H. Nakai, T. Vreven, J. A. Montgomery, Jr., 
 J. E. Peralta, F. Ogliaro, M. Bearpark, J. J. Heyd, E. Brothers, 
 K. N. Kudin, V. N. Staroverov, T. Keith, R. Kobayashi, J. Normand, 
 K. Raghavachari, A. Rendell, J. C. Burant, S. S. Iyengar, J. Tomasi, 
 M. Cossi, N. Rega, J. M. Millam, M. Klene, J. E. Knox, J. B. Cross, 
 V. Bakken, C. Adamo, J. Jaramillo, R. Gomperts, R. E. Stratmann, 
 O. Yazyev, A. J. Austin, R. Cammi, C. Pomelli, J. W. Ochterski, 
 R. L. Martin, K. Morokuma, V. G. Zakrzewski, G. A. Voth, 
 P. Salvador, J. J. Dannenberg, S. Dapprich, A. D. Daniels, 
 O. Farkas, J. B. Foresman, J. V. Ortiz, J. Cioslowski, 
 and D. J. Fox, Gaussian, Inc., Wallingford CT, 2013.
 
 ******************************************
 Gaussian 09:  IA32W-G09RevD.01 24-Apr-2013
                10-Jul-2019 
 ******************************************
 %nprocshared=4
 Will use up to    4 processors via shared memory.
 %mem=1600MB
 ----------------------------------------------------
 #p opt b3lyp/6-311++g(d,p) pop=nbo geom=connectivity
 ----------------------------------------------------
 1/14=-1,18=20,19=15,26=3,38=1,57=2/1,3;
 2/9=110,12=2,17=6,18=5,40=1/2;
 3/5=4,6=6,7=1111,11=2,16=1,25=1,30=1,71=1,74=-5/1,2,3;
 4//1;
 5/5=2,38=5/2;
 6/7=2,8=2,9=2,10=2,28=1,40=1/1,7;
 7//1,2,3,16;
 1/14=-1,18=20,19=15,26=3/3(2);
 2/9=110/2;
 99//99;
 2/9=110/2;
 3/5=4,6=6,7=1111,11=2,16=1,25=1,30=1,71=1,74=-5/1,2,3;
 4/5=5,16=3,69=1/1;
 5/5=2,38=5/2;
 7//1,2,3,16;
 1/14=-1,18=20,19=15,26=3/3(-5);
 2/9=110/2;
 6/7=2,8=2,9=2,10=2,19=2,28=1,40=1/1,7;
 99/9=1/99;
 Leave Link    1 at Wed Jul 10 04:30:27 2019, MaxMem=   209715200 cpu:         0.0
 (Enter C:\G09W\l101.exe)
 ------
 9w.log
 ------
 Symbolic Z-matrix:
 Charge =  0 Multiplicity = 1
 C                    -3.07168  -1.30939  -1.53533 
 C                    -3.41362  -0.84491  -0.27574 
 C                    -3.804    -1.75096   0.70005 
 C                    -3.84238  -3.10317   0.41563 
 C                    -3.47839  -3.58671  -0.83753 
 C                    -3.09306  -2.66849  -1.80474 
 N                    -3.41505   0.54773   0.02461 
 C                    -2.37048   1.38891  -0.11698 
 C                    -2.38788   2.72108  -0.18913 
 C                    -0.92077   0.94719  -0.15686 
 C                    -1.02667   3.23269  -0.2862 
 O                    -0.20479   2.15452  -0.30027 
 Cl                   -3.77158   3.73919  -0.16233 
 O                    -0.62166   4.3378   -0.35562 
 C                    -3.48497  -5.06927  -1.12499 
 C                    -0.46758   0.23234   1.12516 
 C                     0.9347   -0.3241    1.0134 
 O                    -0.62041   1.07019   2.23025 
 S                     1.37832  -1.70272   1.97036 
 C                     2.99339  -1.65146   1.37887 
 C                     3.1936   -0.64195   0.50574 
 C                     1.98768   0.12475   0.30197 
 C                     4.48274  -0.34772  -0.1684 
 C                     5.69068  -0.476     0.51214 
 C                     6.89222  -0.21634  -0.12377 
 C                     6.90768   0.18523  -1.44928 
 C                     5.71182   0.32455  -2.13391 
 C                     4.51045   0.06007  -1.49947 
 H                    -0.7216    0.32227  -1.01691 
 H                    -1.14648  -0.59337   1.28868 
 H                    -2.80444  -0.61131  -2.30906 
 H                    -4.07143  -1.39044   1.67733 
 H                    -4.15048  -3.79212   1.18288 
 H                    -2.82002  -3.01175  -2.78727 
 H                    -4.30536   0.9837    0.12301 
 H                    -3.53488  -5.26332  -2.18999 
 H                    -2.5825   -5.53981  -0.74475 
 H                    -4.33212  -5.5562   -0.65465 
 H                     0.056     1.73024   2.21882 
 H                     3.70439  -2.38951   1.69064 
 H                     1.94483   0.98863  -0.33218 
 H                     5.68799  -0.75997   1.54932 
 H                     7.81504  -0.31715   0.41991 
 H                     7.84114   0.39211  -1.9419 
 H                     5.71292   0.63565  -3.16368 
 H                     3.59007   0.15754  -2.04735 
 
 NAtoms=     46 NQM=       46 NQMF=       0 NMMI=      0 NMMIF=      0
                NMic=       0 NMicF=      0.
                    Isotopes and Nuclear Properties:
 (Nuclear quadrupole moments (NQMom) in fm**2, nuclear magnetic moments (NMagM)
  in nuclear magnetons)

  Atom         1           2           3           4           5           6           7           8           9          10
 IAtWgt=          12          12          12          12          12          12          14          12          12          12
 AtmWgt=  12.0000000  12.0000000  12.0000000  12.0000000  12.0000000  12.0000000  14.0030740  12.0000000  12.0000000  12.0000000
 NucSpn=           0           0           0           0           0           0           2           0           0           0
 AtZEff=   0.0000000   0.0000000   0.0000000   0.0000000   0.0000000   0.0000000   0.0000000   0.0000000   0.0000000   0.0000000
 NQMom=    0.0000000   0.0000000   0.0000000   0.0000000   0.0000000   0.0000000   2.0440000   0.0000000   0.0000000   0.0000000
 NMagM=    0.0000000   0.0000000   0.0000000   0.0000000   0.0000000   0.0000000   0.4037610   0.0000000   0.0000000   0.0000000
 AtZNuc=   6.0000000   6.0000000   6.0000000   6.0000000   6.0000000   6.0000000   7.0000000   6.0000000   6.0000000   6.0000000

  Atom        11          12          13          14          15          16          17          18          19          20
 IAtWgt=          12          16          35          16          12          12          12          16          32          12
 AtmWgt=  12.0000000  15.9949146  34.9688527  15.9949146  12.0000000  12.0000000  12.0000000  15.9949146  31.9720718  12.0000000
 NucSpn=           0           0           3           0           0           0           0           0           0           0
 AtZEff=   0.0000000   0.0000000   0.0000000   0.0000000   0.0000000   0.0000000   0.0000000   0.0000000   0.0000000   0.0000000
 NQMom=    0.0000000   0.0000000  -8.1650000   0.0000000   0.0000000   0.0000000   0.0000000   0.0000000   0.0000000   0.0000000
 NMagM=    0.0000000   0.0000000   0.8218740   0.0000000   0.0000000   0.0000000   0.0000000   0.0000000   0.0000000   0.0000000
 AtZNuc=   6.0000000   8.0000000  17.0000000   8.0000000   6.0000000   6.0000000   6.0000000   8.0000000  16.0000000   6.0000000

  Atom        21          22          23          24          25          26          27          28          29          30
 IAtWgt=          12          12          12          12          12          12          12          12           1           1
 AtmWgt=  12.0000000  12.0000000  12.0000000  12.0000000  12.0000000  12.0000000  12.0000000  12.0000000   1.0078250   1.0078250
 NucSpn=           0           0           0           0           0           0           0           0           1           1
 AtZEff=   0.0000000   0.0000000   0.0000000   0.0000000   0.0000000   0.0000000   0.0000000   0.0000000   0.0000000   0.0000000
 NQMom=    0.0000000   0.0000000   0.0000000   0.0000000   0.0000000   0.0000000   0.0000000   0.0000000   0.0000000   0.0000000
 NMagM=    0.0000000   0.0000000   0.0000000   0.0000000   0.0000000   0.0000000   0.0000000   0.0000000   2.7928460   2.7928460
 AtZNuc=   6.0000000   6.0000000   6.0000000   6.0000000   6.0000000   6.0000000   6.0000000   6.0000000   1.0000000   1.0000000

  Atom        31          32          33          34          35          36          37          38          39          40
 IAtWgt=           1           1           1           1           1           1           1           1           1           1
 AtmWgt=   1.0078250   1.0078250   1.0078250   1.0078250   1.0078250   1.0078250   1.0078250   1.0078250   1.0078250   1.0078250
 NucSpn=           1           1           1           1           1           1           1           1           1           1
 AtZEff=   0.0000000   0.0000000   0.0000000   0.0000000   0.0000000   0.0000000   0.0000000   0.0000000   0.0000000   0.0000000
 NQMom=    0.0000000   0.0000000   0.0000000   0.0000000   0.0000000   0.0000000   0.0000000   0.0000000   0.0000000   0.0000000
 NMagM=    2.7928460   2.7928460   2.7928460   2.7928460   2.7928460   2.7928460   2.7928460   2.7928460   2.7928460   2.7928460
 AtZNuc=   1.0000000   1.0000000   1.0000000   1.0000000   1.0000000   1.0000000   1.0000000   1.0000000   1.0000000   1.0000000

  Atom        41          42          43          44          45          46
 IAtWgt=           1           1           1           1           1           1
 AtmWgt=   1.0078250   1.0078250   1.0078250   1.0078250   1.0078250   1.0078250
 NucSpn=           1           1           1           1           1           1
 AtZEff=   0.0000000   0.0000000   0.0000000   0.0000000   0.0000000   0.0000000
 NQMom=    0.0000000   0.0000000   0.0000000   0.0000000   0.0000000   0.0000000
 NMagM=    2.7928460   2.7928460   2.7928460   2.7928460   2.7928460   2.7928460
 AtZNuc=   1.0000000   1.0000000   1.0000000   1.0000000   1.0000000   1.0000000
 Leave Link  101 at Wed Jul 10 04:30:27 2019, MaxMem=   209715200 cpu:         0.0
 (Enter C:\G09W\l103.exe)

 GradGradGradGradGradGradGradGradGradGradGradGradGradGradGradGradGradGrad
 Berny optimization.
 Initialization pass.
                           ----------------------------
                           !    Initial Parameters    !
                           ! (Angstroms and Degrees)  !
 --------------------------                            --------------------------
 ! Name  Definition              Value          Derivative Info.                !
 --------------------------------------------------------------------------------
 ! R1    R(1,2)                  1.3854         estimate D2E/DX2                !
 ! R2    R(1,6)                  1.3857         estimate D2E/DX2                !
 ! R3    R(1,31)                 1.0758         estimate D2E/DX2                !
 ! R4    R(2,3)                  1.3876         estimate D2E/DX2                !
 ! R5    R(2,7)                  1.4247         estimate D2E/DX2                !
 ! R6    R(3,4)                  1.3823         estimate D2E/DX2                !
 ! R7    R(3,32)                 1.0754         estimate D2E/DX2                !
 ! R8    R(4,5)                  1.3917         estimate D2E/DX2                !
 ! R9    R(4,33)                 1.0762         estimate D2E/DX2                !
 ! R10   R(5,6)                  1.3882         estimate D2E/DX2                !
 ! R11   R(5,15)                 1.5102         estimate D2E/DX2                !
 ! R12   R(6,34)                 1.076          estimate D2E/DX2                !
 ! R13   R(7,8)                  1.3486         estimate D2E/DX2                !
 ! R14   R(7,35)                 0.9962         estimate D2E/DX2                !
 ! R15   R(8,9)                  1.3342         estimate D2E/DX2                !
 ! R16   R(8,10)                 1.516          estimate D2E/DX2                !
 ! R17   R(9,11)                 1.4574         estimate D2E/DX2                !
 ! R18   R(9,13)                 1.7181         estimate D2E/DX2                !
 ! R19   R(10,12)                1.411          estimate D2E/DX2                !
 ! R20   R(10,16)                1.5362         estimate D2E/DX2                !
 ! R21   R(10,29)                1.0816         estimate D2E/DX2                !
 ! R22   R(11,12)                1.3558         estimate D2E/DX2                !
 ! R23   R(11,14)                1.179          estimate D2E/DX2                !
 ! R24   R(15,36)                1.0837         estimate D2E/DX2                !
 ! R25   R(15,37)                1.0865         estimate D2E/DX2                !
 ! R26   R(15,38)                1.0844         estimate D2E/DX2                !
 ! R27   R(16,17)                1.5128         estimate D2E/DX2                !
 ! R28   R(16,18)                1.3952         estimate D2E/DX2                !
 ! R29   R(16,30)                1.0814         estimate D2E/DX2                !
 ! R30   R(17,19)                1.7359         estimate D2E/DX2                !
 ! R31   R(17,22)                1.3477         estimate D2E/DX2                !
 ! R32   R(18,39)                0.9452         estimate D2E/DX2                !
 ! R33   R(19,20)                1.7207         estimate D2E/DX2                !
 ! R34   R(20,21)                1.3497         estimate D2E/DX2                !
 ! R35   R(20,40)                1.0712         estimate D2E/DX2                !
 ! R36   R(21,22)                1.4435         estimate D2E/DX2                !
 ! R37   R(21,23)                1.4842         estimate D2E/DX2                !
 ! R38   R(22,41)                1.0725         estimate D2E/DX2                !
 ! R39   R(23,24)                1.3924         estimate D2E/DX2                !
 ! R40   R(23,28)                1.3924         estimate D2E/DX2                !
 ! R41   R(24,25)                1.384          estimate D2E/DX2                !
 ! R42   R(24,42)                1.0754         estimate D2E/DX2                !
 ! R43   R(25,26)                1.3851         estimate D2E/DX2                !
 ! R44   R(25,43)                1.0758         estimate D2E/DX2                !
 ! R45   R(26,27)                1.385          estimate D2E/DX2                !
 ! R46   R(26,44)                1.0756         estimate D2E/DX2                !
 ! R47   R(27,28)                1.3841         estimate D2E/DX2                !
 ! R48   R(27,45)                1.0757         estimate D2E/DX2                !
 ! R49   R(28,46)                1.0755         estimate D2E/DX2                !
 ! A1    A(2,1,6)              120.119          estimate D2E/DX2                !
 ! A2    A(2,1,31)             119.8453         estimate D2E/DX2                !
 ! A3    A(6,1,31)             120.0286         estimate D2E/DX2                !
 ! A4    A(1,2,3)              119.3336         estimate D2E/DX2                !
 ! A5    A(1,2,7)              121.3101         estimate D2E/DX2                !
 ! A6    A(3,2,7)              119.3234         estimate D2E/DX2                !
 ! A7    A(2,3,4)              120.1218         estimate D2E/DX2                !
 ! A8    A(2,3,32)             119.3474         estimate D2E/DX2                !
 ! A9    A(4,3,32)             120.5304         estimate D2E/DX2                !
 ! A10   A(3,4,5)              121.1916         estimate D2E/DX2                !
 ! A11   A(3,4,33)             119.174          estimate D2E/DX2                !
 ! A12   A(5,4,33)             119.6315         estimate D2E/DX2                !
 ! A13   A(4,5,6)              118.0454         estimate D2E/DX2                !
 ! A14   A(4,5,15)             120.7547         estimate D2E/DX2                !
 ! A15   A(6,5,15)             121.194          estimate D2E/DX2                !
 ! A16   A(1,6,5)              121.1695         estimate D2E/DX2                !
 ! A17   A(1,6,34)             119.1114         estimate D2E/DX2                !
 ! A18   A(5,6,34)             119.712          estimate D2E/DX2                !
 ! A19   A(2,7,8)              125.9309         estimate D2E/DX2                !
 ! A20   A(2,7,35)             116.7124         estimate D2E/DX2                !
 ! A21   A(8,7,35)             115.4441         estimate D2E/DX2                !
 ! A22   A(7,8,9)              128.1957         estimate D2E/DX2                !
 ! A23   A(7,8,10)             124.1727         estimate D2E/DX2                !
 ! A24   A(9,8,10)             107.5755         estimate D2E/DX2                !
 ! A25   A(8,9,11)             109.9939         estimate D2E/DX2                !
 ! A26   A(8,9,13)             126.9643         estimate D2E/DX2                !
 ! A27   A(11,9,13)            123.0397         estimate D2E/DX2                !
 ! A28   A(8,10,12)            103.8037         estimate D2E/DX2                !
 ! A29   A(8,10,16)            113.3114         estimate D2E/DX2                !
 ! A30   A(8,10,29)            111.4289         estimate D2E/DX2                !
 ! A31   A(12,10,16)           109.4691         estimate D2E/DX2                !
 ! A32   A(12,10,29)           108.6699         estimate D2E/DX2                !
 ! A33   A(16,10,29)           109.9016         estimate D2E/DX2                !
 ! A34   A(9,11,12)            106.7216         estimate D2E/DX2                !
 ! A35   A(9,11,14)            130.8276         estimate D2E/DX2                !
 ! A36   A(12,11,14)           122.4478         estimate D2E/DX2                !
 ! A37   A(10,12,11)           111.8264         estimate D2E/DX2                !
 ! A38   A(5,15,36)            111.2877         estimate D2E/DX2                !
 ! A39   A(5,15,37)            110.789          estimate D2E/DX2                !
 ! A40   A(5,15,38)            111.2014         estimate D2E/DX2                !
 ! A41   A(36,15,37)           107.7369         estimate D2E/DX2                !
 ! A42   A(36,15,38)           108.0512         estimate D2E/DX2                !
 ! A43   A(37,15,38)           107.6159         estimate D2E/DX2                !
 ! A44   A(10,16,17)           112.5174         estimate D2E/DX2                !
 ! A45   A(10,16,18)           110.4413         estimate D2E/DX2                !
 ! A46   A(10,16,30)           107.2353         estimate D2E/DX2                !
 ! A47   A(17,16,18)           112.3918         estimate D2E/DX2                !
 ! A48   A(17,16,30)           108.1952         estimate D2E/DX2                !
 ! A49   A(18,16,30)           105.6638         estimate D2E/DX2                !
 ! A50   A(16,17,19)           119.2286         estimate D2E/DX2                !
 ! A51   A(16,17,22)           129.8465         estimate D2E/DX2                !
 ! A52   A(19,17,22)           110.845          estimate D2E/DX2                !
 ! A53   A(16,18,39)           109.3541         estimate D2E/DX2                !
 ! A54   A(17,19,20)            91.5304         estimate D2E/DX2                !
 ! A55   A(19,20,21)           112.5749         estimate D2E/DX2                !
 ! A56   A(19,20,40)           120.1602         estimate D2E/DX2                !
 ! A57   A(21,20,40)           127.2424         estimate D2E/DX2                !
 ! A58   A(20,21,22)           111.3882         estimate D2E/DX2                !
 ! A59   A(20,21,23)           124.8173         estimate D2E/DX2                !
 ! A60   A(22,21,23)           123.7944         estimate D2E/DX2                !
 ! A61   A(17,22,21)           113.6606         estimate D2E/DX2                !
 ! A62   A(17,22,41)           123.309          estimate D2E/DX2                !
 ! A63   A(21,22,41)           123.0028         estimate D2E/DX2                !
 ! A64   A(21,23,24)           120.8809         estimate D2E/DX2                !
 ! A65   A(21,23,28)           120.6329         estimate D2E/DX2                !
 ! A66   A(24,23,28)           118.4859         estimate D2E/DX2                !
 ! A67   A(23,24,25)           120.7508         estimate D2E/DX2                !
 ! A68   A(23,24,42)           119.5752         estimate D2E/DX2                !
 ! A69   A(25,24,42)           119.6614         estimate D2E/DX2                !
 ! A70   A(24,25,26)           120.2507         estimate D2E/DX2                !
 ! A71   A(24,25,43)           119.6644         estimate D2E/DX2                !
 ! A72   A(26,25,43)           120.0813         estimate D2E/DX2                !
 ! A73   A(25,26,27)           119.5106         estimate D2E/DX2                !
 ! A74   A(25,26,44)           120.2491         estimate D2E/DX2                !
 ! A75   A(27,26,44)           120.2397         estimate D2E/DX2                !
 ! A76   A(26,27,28)           120.2411         estimate D2E/DX2                !
 ! A77   A(26,27,45)           120.0929         estimate D2E/DX2                !
 ! A78   A(28,27,45)           119.6656         estimate D2E/DX2                !
 ! A79   A(23,28,27)           120.7584         estimate D2E/DX2                !
 ! A80   A(23,28,46)           119.7667         estimate D2E/DX2                !
 ! A81   A(27,28,46)           119.4688         estimate D2E/DX2                !
 ! D1    D(6,1,2,3)             -1.3814         estimate D2E/DX2                !
 ! D2    D(6,1,2,7)           -179.2776         estimate D2E/DX2                !
 ! D3    D(31,1,2,3)           177.6462         estimate D2E/DX2                !
 ! D4    D(31,1,2,7)            -0.25           estimate D2E/DX2                !
 ! D5    D(2,1,6,5)              1.2508         estimate D2E/DX2                !
 ! D6    D(2,1,6,34)          -179.7154         estimate D2E/DX2                !
 ! D7    D(31,1,6,5)          -177.775          estimate D2E/DX2                !
 ! D8    D(31,1,6,34)            1.2588         estimate D2E/DX2                !
 ! D9    D(1,2,3,4)              0.3672         estimate D2E/DX2                !
 ! D10   D(1,2,3,32)          -179.8752         estimate D2E/DX2                !
 ! D11   D(7,2,3,4)            178.3056         estimate D2E/DX2                !
 ! D12   D(7,2,3,32)            -1.9368         estimate D2E/DX2                !
 ! D13   D(1,2,7,8)            -56.4383         estimate D2E/DX2                !
 ! D14   D(1,2,7,35)           107.0307         estimate D2E/DX2                !
 ! D15   D(3,2,7,8)            125.6653         estimate D2E/DX2                !
 ! D16   D(3,2,7,35)           -70.8656         estimate D2E/DX2                !
 ! D17   D(2,3,4,5)              0.8104         estimate D2E/DX2                !
 ! D18   D(2,3,4,33)          -179.8054         estimate D2E/DX2                !
 ! D19   D(32,3,4,5)          -178.9443         estimate D2E/DX2                !
 ! D20   D(32,3,4,33)            0.4399         estimate D2E/DX2                !
 ! D21   D(3,4,5,6)             -0.9448         estimate D2E/DX2                !
 ! D22   D(3,4,5,15)           178.1825         estimate D2E/DX2                !
 ! D23   D(33,4,5,6)           179.6738         estimate D2E/DX2                !
 ! D24   D(33,4,5,15)           -1.199          estimate D2E/DX2                !
 ! D25   D(4,5,6,1)             -0.085          estimate D2E/DX2                !
 ! D26   D(4,5,6,34)          -179.1131         estimate D2E/DX2                !
 ! D27   D(15,5,6,1)          -179.2083         estimate D2E/DX2                !
 ! D28   D(15,5,6,34)            1.7636         estimate D2E/DX2                !
 ! D29   D(4,5,15,36)          159.3888         estimate D2E/DX2                !
 ! D30   D(4,5,15,37)          -80.7666         estimate D2E/DX2                !
 ! D31   D(4,5,15,38)           38.8687         estimate D2E/DX2                !
 ! D32   D(6,5,15,36)          -21.5116         estimate D2E/DX2                !
 ! D33   D(6,5,15,37)           98.333          estimate D2E/DX2                !
 ! D34   D(6,5,15,38)         -142.0318         estimate D2E/DX2                !
 ! D35   D(2,7,8,9)            161.0206         estimate D2E/DX2                !
 ! D36   D(2,7,8,10)           -22.0495         estimate D2E/DX2                !
 ! D37   D(35,7,8,9)            -2.6317         estimate D2E/DX2                !
 ! D38   D(35,7,8,10)          174.2982         estimate D2E/DX2                !
 ! D39   D(7,8,9,11)           177.7083         estimate D2E/DX2                !
 ! D40   D(7,8,9,13)            -1.7735         estimate D2E/DX2                !
 ! D41   D(10,8,9,11)            0.3724         estimate D2E/DX2                !
 ! D42   D(10,8,9,13)         -179.1094         estimate D2E/DX2                !
 ! D43   D(7,8,10,12)         -179.3756         estimate D2E/DX2                !
 ! D44   D(7,8,10,16)          -60.7171         estimate D2E/DX2                !
 ! D45   D(7,8,10,29)           63.8458         estimate D2E/DX2                !
 ! D46   D(9,8,10,12)           -1.9062         estimate D2E/DX2                !
 ! D47   D(9,8,10,16)          116.7523         estimate D2E/DX2                !
 ! D48   D(9,8,10,29)         -118.6848         estimate D2E/DX2                !
 ! D49   D(8,9,11,12)            1.3862         estimate D2E/DX2                !
 ! D50   D(8,9,11,14)         -179.2503         estimate D2E/DX2                !
 ! D51   D(13,9,11,12)        -179.1078         estimate D2E/DX2                !
 ! D52   D(13,9,11,14)           0.2557         estimate D2E/DX2                !
 ! D53   D(8,10,12,11)           2.8679         estimate D2E/DX2                !
 ! D54   D(16,10,12,11)       -118.4018         estimate D2E/DX2                !
 ! D55   D(29,10,12,11)        121.5616         estimate D2E/DX2                !
 ! D56   D(8,10,16,17)         174.1704         estimate D2E/DX2                !
 ! D57   D(8,10,16,18)         -59.3451         estimate D2E/DX2                !
 ! D58   D(8,10,16,30)          55.3198         estimate D2E/DX2                !
 ! D59   D(12,10,16,17)        -70.4958         estimate D2E/DX2                !
 ! D60   D(12,10,16,18)         55.9888         estimate D2E/DX2                !
 ! D61   D(12,10,16,30)        170.6536         estimate D2E/DX2                !
 ! D62   D(29,10,16,17)         48.7839         estimate D2E/DX2                !
 ! D63   D(29,10,16,18)        175.2685         estimate D2E/DX2                !
 ! D64   D(29,10,16,30)        -70.0667         estimate D2E/DX2                !
 ! D65   D(9,11,12,10)          -2.7167         estimate D2E/DX2                !
 ! D66   D(14,11,12,10)        177.854          estimate D2E/DX2                !
 ! D67   D(10,16,17,19)       -152.9608         estimate D2E/DX2                !
 ! D68   D(10,16,17,22)         30.6124         estimate D2E/DX2                !
 ! D69   D(18,16,17,19)         81.6094         estimate D2E/DX2                !
 ! D70   D(18,16,17,22)        -94.8174         estimate D2E/DX2                !
 ! D71   D(30,16,17,19)        -34.6733         estimate D2E/DX2                !
 ! D72   D(30,16,17,22)        148.8999         estimate D2E/DX2                !
 ! D73   D(10,16,18,39)        -74.2701         estimate D2E/DX2                !
 ! D74   D(17,16,18,39)         52.2846         estimate D2E/DX2                !
 ! D75   D(30,16,18,39)        170.0772         estimate D2E/DX2                !
 ! D76   D(16,17,19,20)       -177.3433         estimate D2E/DX2                !
 ! D77   D(22,17,19,20)         -0.2783         estimate D2E/DX2                !
 ! D78   D(16,17,22,21)        176.9292         estimate D2E/DX2                !
 ! D79   D(16,17,22,41)         -1.2108         estimate D2E/DX2                !
 ! D80   D(19,17,22,21)          0.2656         estimate D2E/DX2                !
 ! D81   D(19,17,22,41)       -177.8744         estimate D2E/DX2                !
 ! D82   D(17,19,20,21)          0.2254         estimate D2E/DX2                !
 ! D83   D(17,19,20,40)       -178.172          estimate D2E/DX2                !
 ! D84   D(19,20,21,22)         -0.1162         estimate D2E/DX2                !
 ! D85   D(19,20,21,23)       -179.9986         estimate D2E/DX2                !
 ! D86   D(40,20,21,22)        178.1432         estimate D2E/DX2                !
 ! D87   D(40,20,21,23)         -1.7392         estimate D2E/DX2                !
 ! D88   D(20,21,22,17)         -0.1004         estimate D2E/DX2                !
 ! D89   D(20,21,22,41)        178.046          estimate D2E/DX2                !
 ! D90   D(23,21,22,17)        179.7834         estimate D2E/DX2                !
 ! D91   D(23,21,22,41)         -2.0702         estimate D2E/DX2                !
 ! D92   D(20,21,23,24)        -38.7545         estimate D2E/DX2                !
 ! D93   D(20,21,23,28)        141.0686         estimate D2E/DX2                !
 ! D94   D(22,21,23,24)        141.3773         estimate D2E/DX2                !
 ! D95   D(22,21,23,28)        -38.7996         estimate D2E/DX2                !
 ! D96   D(21,23,24,25)        179.2228         estimate D2E/DX2                !
 ! D97   D(21,23,24,42)         -2.0763         estimate D2E/DX2                !
 ! D98   D(28,23,24,25)         -0.604          estimate D2E/DX2                !
 ! D99   D(28,23,24,42)        178.0969         estimate D2E/DX2                !
 ! D100  D(21,23,28,27)       -179.4659         estimate D2E/DX2                !
 ! D101  D(21,23,28,46)         -0.3675         estimate D2E/DX2                !
 ! D102  D(24,23,28,27)          0.3613         estimate D2E/DX2                !
 ! D103  D(24,23,28,46)        179.4597         estimate D2E/DX2                !
 ! D104  D(23,24,25,26)          0.4419         estimate D2E/DX2                !
 ! D105  D(23,24,25,43)        179.753          estimate D2E/DX2                !
 ! D106  D(42,24,25,26)       -178.2579         estimate D2E/DX2                !
 ! D107  D(42,24,25,43)          1.0533         estimate D2E/DX2                !
 ! D108  D(24,25,26,27)         -0.0245         estimate D2E/DX2                !
 ! D109  D(24,25,26,44)        179.6707         estimate D2E/DX2                !
 ! D110  D(43,25,26,27)       -179.3327         estimate D2E/DX2                !
 ! D111  D(43,25,26,44)          0.3624         estimate D2E/DX2                !
 ! D112  D(25,26,27,28)         -0.217          estimate D2E/DX2                !
 ! D113  D(25,26,27,45)       -179.9851         estimate D2E/DX2                !
 ! D114  D(44,26,27,28)       -179.9122         estimate D2E/DX2                !
 ! D115  D(44,26,27,45)          0.3197         estimate D2E/DX2                !
 ! D116  D(26,27,28,23)          0.0452         estimate D2E/DX2                !
 ! D117  D(26,27,28,46)       -179.0559         estimate D2E/DX2                !
 ! D118  D(45,27,28,23)        179.8143         estimate D2E/DX2                !
 ! D119  D(45,27,28,46)          0.7132         estimate D2E/DX2                !
 --------------------------------------------------------------------------------
 Trust Radius=3.00D-01 FncErr=1.00D-07 GrdErr=1.00D-06
 Number of steps in this run=    259 maximum allowed number of steps=    276.
 GradGradGradGradGradGradGradGradGradGradGradGradGradGradGradGradGradGrad

 Leave Link  103 at Wed Jul 10 04:30:27 2019, MaxMem=   209715200 cpu:         0.0
 (Enter C:\G09W\l202.exe)
                          Input orientation:                          
 ---------------------------------------------------------------------
 Center     Atomic      Atomic             Coordinates (Angstroms)
 Number     Number       Type             X           Y           Z
 ---------------------------------------------------------------------
      1          6           0       -3.071684   -1.309390   -1.535332
      2          6           0       -3.413619   -0.844912   -0.275743
      3          6           0       -3.803999   -1.750957    0.700054
      4          6           0       -3.842380   -3.103171    0.415629
      5          6           0       -3.478394   -3.586710   -0.837533
      6          6           0       -3.093057   -2.668488   -1.804736
      7          7           0       -3.415046    0.547734    0.024607
      8          6           0       -2.370480    1.388912   -0.116978
      9          6           0       -2.387877    2.721076   -0.189129
     10          6           0       -0.920773    0.947189   -0.156856
     11          6           0       -1.026671    3.232686   -0.286203
     12          8           0       -0.204789    2.154522   -0.300270
     13         17           0       -3.771579    3.739188   -0.162327
     14          8           0       -0.621662    4.337802   -0.355621
     15          6           0       -3.484970   -5.069270   -1.124990
     16          6           0       -0.467584    0.232339    1.125158
     17          6           0        0.934698   -0.324098    1.013398
     18          8           0       -0.620410    1.070187    2.230250
     19         16           0        1.378317   -1.702723    1.970364
     20          6           0        2.993392   -1.651464    1.378874
     21          6           0        3.193601   -0.641951    0.505736
     22          6           0        1.987683    0.124746    0.301971
     23          6           0        4.482740   -0.347715   -0.168397
     24          6           0        5.690684   -0.475999    0.512138
     25          6           0        6.892222   -0.216338   -0.123772
     26          6           0        6.907679    0.185229   -1.449282
     27          6           0        5.711821    0.324545   -2.133910
     28          6           0        4.510453    0.060066   -1.499471
     29          1           0       -0.721599    0.322269   -1.016910
     30          1           0       -1.146482   -0.593370    1.288682
     31          1           0       -2.804442   -0.611309   -2.309056
     32          1           0       -4.071429   -1.390440    1.677334
     33          1           0       -4.150479   -3.792115    1.182884
     34          1           0       -2.820017   -3.011749   -2.787270
     35          1           0       -4.305364    0.983701    0.123009
     36          1           0       -3.534881   -5.263318   -2.189994
     37          1           0       -2.582496   -5.539808   -0.744749
     38          1           0       -4.332117   -5.556195   -0.654647
     39          1           0        0.055997    1.730235    2.218821
     40          1           0        3.704388   -2.389514    1.690638
     41          1           0        1.944829    0.988632   -0.332180
     42          1           0        5.687992   -0.759968    1.549319
     43          1           0        7.815043   -0.317148    0.419907
     44          1           0        7.841138    0.392114   -1.941895
     45          1           0        5.712922    0.635646   -3.163678
     46          1           0        3.590065    0.157541   -2.047352
 ---------------------------------------------------------------------
                    Distance matrix (angstroms):
                    1          2          3          4          5
     1  C    0.000000
     2  C    1.385361   0.000000
     3  C    2.393369   1.387622   0.000000
     4  C    2.760049   2.400326   1.382336   0.000000
     5  C    2.416304   2.799511   2.416647   1.391658   0.000000
     6  C    1.385707   2.401252   2.760666   2.383371   1.388200
     7  N    2.449534   1.424667   2.427240   3.696569   4.223852
     8  C    3.127978   2.470489   3.547012   4.756992   5.148154
     9  C    4.304011   3.711593   4.774424   6.033503   6.434114
    10  C    3.408631   3.072465   4.040703   5.026822   5.249856
    11  C    5.135451   4.724874   5.789901   6.968778   7.267673
    12  O    4.662955   4.392470   5.404417   6.433344   6.630753
    13  Cl   5.278554   4.599453   5.557557   6.867090   7.362788
    14  O    6.267783   5.887438   6.950878   8.144687   8.437479
    15  C    3.804719   4.309468   3.800496   2.523251   1.510185
    16  C    4.029451   3.435421   3.904592   4.797740   5.244260
    17  C    4.849528   4.565194   4.958766   5.558871   5.791888
    18  O    5.084362   4.213030   4.520574   5.575918   6.266263
    19  S    5.678655   5.361295   5.335955   5.624423   5.917883
    20  C    6.737563   6.666189   6.831927   7.054295   7.109265
    21  C    6.623083   6.656370   7.087599   7.454579   7.415625
    22  C    5.570424   5.517975   6.100845   6.664983   6.704578
    23  C    7.737096   7.912725   8.449458   8.788700   8.620817
    24  C    9.036911   9.145774   9.581745   9.888916   9.775997
    25  C   10.122583  10.326111  10.837107  11.129081  10.927879
    26  C   10.091034  10.438754  11.095427  11.395404  11.066719
    27  C    8.954217   9.385844  10.143465  10.465760  10.071671
    28  C    7.704901   8.068916   8.789074   9.134741   8.806748
    29  H    2.907571   3.026320   4.092361   4.850266   4.786670
    30  H    3.492011   2.765973   2.957852   3.785391   4.349562
    31  H    1.075818   2.135422   3.369370   3.835440   3.387123
    32  H    3.365603   2.131859   1.075438   2.139582   3.391143
    33  H    3.836199   3.369950   2.125911   1.076220   2.139153
    34  H    2.128077   3.369765   3.836567   3.363353   2.136707
    35  H    3.087123   2.073171   2.839490   4.123409   4.742908
    36  H    4.034437   4.816780   4.556477   3.398538   2.154845
    37  H    4.331370   4.790906   4.234964   2.978420   2.150775
    38  H    4.516597   4.814914   4.073568   2.720783   2.154335
    39  H    5.754596   4.989235   5.415249   6.466116   7.078356
    40  H    7.582130   7.544433   7.600322   7.686915   7.708261
    41  H    5.647467   5.663747   6.451347   7.126981   7.113402
    42  H    9.303164   9.283178   9.581294   9.879466   9.884845
    43  H   11.105329  11.262563  11.710526  11.985719  11.824251
    44  H   11.052153  11.444468  12.131853  12.420931  12.049168
    45  H    9.143521   9.686381  10.544955  10.867106  10.378802
    46  H    6.840537   7.293497   8.115589   8.481731   8.089882
                    6          7          8          9         10
     6  C    0.000000
     7  N    3.714062   0.000000
     8  C    4.453441   1.348608   0.000000
     9  C    5.670526   2.413333   1.334230   0.000000
    10  C    4.528515   2.532566   1.516034   2.302197   0.000000
    11  C    6.434264   3.606925   2.287785   1.457412   2.291602
    12  O    5.819531   3.604589   2.304338   2.258143   1.410976
    13  Cl   6.649527   3.216743   2.736591   1.718110   3.990286
    14  O    7.569401   4.723577   3.436752   2.400216   3.409579
    15  C    2.525748   5.733864   6.630708   7.922685   6.611367
    16  C    4.887963   3.161996   2.549819   3.407152   1.536213
    17  C    5.446178   4.545115   3.890547   4.664618   2.535436
    18  O    6.030985   3.598306   2.945133   3.420931   2.409071
    19  S    5.931043   5.641530   5.288543   6.198195   4.102793
    20  C    6.943671   6.909312   6.344492   7.108853   4.942889
    21  C    6.997657   6.732091   5.955768   6.553296   4.460097
    22  C    6.168816   5.426355   4.557106   5.111520   3.057131
    23  C    8.090506   7.950730   7.070017   7.524845   5.556515
    24  C    9.345000   9.176058   8.297954   8.716433   6.795909
    25  C   10.418468  10.336614   9.400772   9.734111   7.899227
    26  C   10.405997  10.433715   9.450297   9.717297   7.970923
    27  C    9.305508   9.381296   8.397886   8.667793   6.948937
    28  C    8.084031   8.085429   7.143134   7.508990   5.664611
    29  H    3.897321   2.896593   2.160188   3.035783   1.081614
    30  H    4.202916   2.836615   2.720936   3.835432   2.124582
    31  H    2.137668   2.676229   2.999069   3.971449   3.257160
    32  H    3.836070   2.630373   3.719890   4.818983   4.330750
    33  H    3.362522   4.551566   5.630371   6.885553   5.889559
    34  H    1.075989   4.575001   5.167046   6.308911   5.118535
    35  H    4.303995   0.996201   1.991373   2.606273   3.396338
    36  H    2.660221   6.219899   7.064375   8.310814   7.038296
    37  H    3.103018   6.192190   6.960331   8.281835   6.722207
    38  H    3.346166   6.209698   7.236824   8.515280   7.360643
    39  H    6.741982   4.273292   3.385299   3.571066   2.685346
    40  H    7.648577   7.879684   7.378889   8.171129   5.994909
    41  H    6.397128   5.389800   4.339174   4.668422   2.871259
    42  H    9.591609   9.322024   8.504893   8.964348   7.035708
    43  H   11.378246  11.270279  10.341362  10.663081   8.845659
    44  H   11.355295  11.427731  10.421184  10.636212   8.959105
    45  H    9.503120   9.669162   8.671285   8.878057   7.289990
    46  H    7.260125   7.315521   6.385195   6.764650   4.954309
                   11         12         13         14         15
    11  C    0.000000
    12  O    1.355775   0.000000
    13  Cl   2.793995   3.905405   0.000000
    14  O    1.179039   2.223411   3.212114   0.000000
    15  C    8.698809   7.976398   8.865540   9.863238   0.000000
    16  C    3.362529   2.407425   4.987183   4.367067   6.501911
    17  C    4.264580   3.027823   6.327848   5.101939   6.828091
    18  O    3.342751   2.784251   4.772615   4.167018   7.560177
    19  S    5.935851   4.747667   7.790006   6.774811   6.675808
    20  C    6.541277   5.247229   8.786311   7.207524   7.740795
    21  C    5.783656   4.474255   8.255569   6.332149   8.177025
    22  C    4.369390   3.047888   6.815340   4.999095   7.678799
    23  C    6.571663   5.315215   9.210678   6.931381   9.310884
    24  C    7.714567   6.506631  10.380613   7.985700  10.390907
    25  C    8.638925   7.484631  11.373844   8.789334  11.499543
    26  C    8.578675   7.468972  11.328435   8.667810  11.649982
    27  C    7.568261   6.458895  10.270433   7.705943  10.709441
    28  C    6.495943   5.297012   9.160565   6.778350   9.506688
    29  H    3.016211   2.034162   4.659187   4.070847   6.059422
    30  H    4.139242   3.310961   5.269499   5.224522   5.597144
    31  H    4.693474   4.294559   4.946779   5.751012   4.662461
    32  H    5.873612   5.606120   5.457778   6.989031   4.661625
    33  H    7.827146   7.289081   7.659875   8.995282   2.720351
    34  H    6.961637   6.301979   7.305542   8.047458   2.727404
    35  H    3.996901   4.285406   2.821179   5.004872   6.234501
    36  H    9.060774   8.347749   9.231066  10.199670   1.083688
    37  H    8.921183   8.065592   9.372988  10.077870   1.086484
    38  H    9.397135   8.753032   9.325274  10.571096   1.084425
    39  H    3.115233   2.567849   4.935190   3.726443   8.363778
    40  H    7.609202   6.316141   9.842995   8.255826   8.172865
    41  H    3.723937   2.445644   6.346001   4.219522   8.173704
    42  H    8.024782   6.829356  10.613935   8.332334  10.481662
    43  H    9.553838   8.422916  12.289942   9.666850  12.355552
    44  H    9.457706   8.398688  12.215767   9.471204  12.600586
    45  H    7.774741   6.747251  10.420933   7.856087  11.013788
    46  H    5.820001   4.630458   8.400912   6.170509   8.844570
                   16         17         18         19         20
    16  C    0.000000
    17  C    1.512781   0.000000
    18  O    1.395197   2.417255   0.000000
    19  S    2.804673   1.735854   3.428043   0.000000
    20  C    3.948600   2.476630   4.603454   1.720743   0.000000
    21  C    3.814753   2.336963   4.522394   2.562348   1.349656
    22  C    2.591824   1.347727   3.378501   2.548432   2.307833
    23  C    5.149316   3.739759   5.814301   4.005969   2.512363
    24  C    6.229109   4.784740   6.721050   4.714635   3.067301
    25  C    7.478495   6.066042   7.977230   6.082589   4.417964
    26  C    7.811816   6.480795   8.425807   6.769947   5.166580
    27  C    6.986778   5.757360   7.726514   6.303502   4.861494
    28  C    5.630205   4.387268   6.423155   4.995744   3.676368
    29  H    2.158950   2.698752   3.333717   4.175410   4.841132
    30  H    1.081406   2.116506   1.982605   2.840768   4.273904
    31  H    4.238688   5.010225   5.310624   6.082770   6.949650
    32  H    3.990740   5.161318   4.274334   5.466545   7.075939
    33  H    5.455573   6.157507   6.099208   5.962656   7.460274
    34  H    5.600459   5.980504   6.831982   6.478784   7.280306
    35  H    4.037004   5.473699   4.245802   6.552391   7.860861
    36  H    7.113423   7.391532   8.255058   7.357033   8.270469
    37  H    6.425503   6.531873   7.509490   6.146796   7.121764
    38  H    7.183972   7.608978   8.124552   7.372176   8.546649
    39  H    1.927155   2.538788   0.945156   3.687202   4.557377
    40  H    4.959761   3.520764   5.564584   2.441421   1.071182
    41  H    2.918141   2.134058   3.626727   3.586926   3.316217
    42  H    6.249456   4.803228   6.603716   4.431632   2.843358
    43  H    8.330740   6.905898   8.738358   6.764257   5.093951
    44  H    8.858172   7.546233   9.458561   7.839781   6.221283
    45  H    7.533620   6.418761   8.330329   7.114433   5.767278
    46  H    5.151207   4.080581   6.071153   4.949187   3.920146
                   21         22         23         24         25
    21  C    0.000000
    22  C    1.443462   0.000000
    23  C    1.484220   2.582591   0.000000
    24  C    2.502600   3.757297   1.392377   0.000000
    25  C    3.775874   4.934785   2.413474   1.384016   0.000000
    26  C    4.277931   5.222730   2.793747   2.401139   1.385089
    27  C    3.774027   4.454508   2.413673   2.764577   2.393022
    28  C    2.499556   3.100604   1.392412   2.393090   2.764375
    29  H    4.310100   3.019714   5.315449   6.640225   7.684924
    30  H    4.410406   3.363373   5.819928   6.882124   8.170553
    31  H    6.625746   5.506696   7.599666   8.952352   9.947701
    32  H    7.396860   6.395330   8.812934   9.873841  11.172472
    33  H    8.019824   7.334497   9.392674  10.406489  11.680530
    34  H    7.254201   6.518818   8.202794   9.473550  10.451609
    35  H    7.682688   6.353918   8.893164  10.109556  11.264410
    36  H    8.596305   8.108011   9.619369  10.739227  11.767147
    37  H    7.675677   7.353185   8.786784   9.780973  10.885551
    38  H    9.062710   8.551496  10.250191  11.297182  12.441129
    39  H    4.290278   3.159639   5.441759   6.287283   7.484040
    40  H    2.172297   3.346188   2.868935   2.999296   4.263457
    41  H    2.218183   1.072512   2.872915   4.109677   5.096281
    42  H    2.706470   4.003858   2.138489   1.075356   2.131886
    43  H    4.633637   5.845280   3.383974   2.132285   1.075801
    44  H    5.353484   6.274500   3.869300   3.376441   2.139212
    45  H    4.630748   5.113624   3.384088   3.840296   3.370112
    46  H    2.704557   2.843945   2.140706   3.371196   3.839816
                   26         27         28         29         30
    26  C    0.000000
    27  C    1.384991   0.000000
    28  C    2.401016   1.384105   0.000000
    29  H    7.642749   6.529670   5.260797   0.000000
    30  H    8.542375   7.719652   6.340480   2.516878   0.000000
    31  H    9.782585   8.569319   7.390119   2.622869   3.961423
    32  H   11.523857  10.638549   9.265245   4.627492   3.056417
    33  H   12.042858  11.189860   9.851196   5.790032   4.389437
    34  H   10.326614   9.184225   8.051724   4.318936   5.026197
    35  H   11.350859  10.289420   9.011336   3.818413   3.718129
    36  H   11.801796  10.804113   9.671744   6.363133   6.293969
    37  H   11.105667  10.252614   9.068524   6.156375   5.537529
    38  H   12.646280  11.732519  10.509384   6.908213   6.209221
    39  H    7.923861   7.273966   6.037991   3.613444   2.776735
    40  H    5.171989   5.101281   4.102070   5.854395   5.188318
    41  H    5.150073   4.228176   2.967698   2.832443   3.832248
    42  H    3.372335   3.839650   3.369596   6.988535   6.841471
    43  H    2.137653   3.370058   3.840132   8.680297   9.007774
    44  H    1.075553   2.139025   3.376308   8.612836   9.601308
    45  H    2.137633   1.075736   2.132325   6.790426   8.269547
    46  H    3.371204   2.130078   1.075541   4.436146   5.841906
                   31         32         33         34         35
    31  H    0.000000
    32  H    4.254833   0.000000
    33  H    4.911516   2.453319   0.000000
    34  H    2.447661   4.911961   4.259251   0.000000
    35  H    3.272883   2.847314   4.894460   5.161356   0.000000
    36  H    4.710510   5.499390   3.730912   2.436664   6.705883
    37  H    5.175560   5.029976   3.037889   3.258741   6.802753
    38  H    5.433485   4.781172   2.553721   3.648114   6.586023
    39  H    5.845221   5.202640   7.018829   7.471199   4.896040
    40  H    7.843751   7.839748   7.995251   7.937676   8.831317
    41  H    5.387339   6.774473   7.893272   6.688368   6.266748
    42  H    9.329019   9.780602  10.301636   9.811358  10.244116
    43  H   10.968465  12.000887  12.483239  11.430283  12.193630
    44  H   10.699067  12.577184  13.079407  11.223242  12.334963
    45  H    8.650478  11.102880  11.652654   9.287423  10.549384
    46  H    6.445878   8.658408   9.270935   7.188952   8.229873
                   36         37         38         39         40
    36  H    0.000000
    37  H    1.752774   0.000000
    38  H    1.754609   1.752016   0.000000
    39  H    9.013425   8.282386   8.977997   0.000000
    40  H    8.702015   7.441799   8.950622   5.528297   0.000000
    41  H    8.518543   7.955339   9.074073   3.259642   4.312738
    42  H   10.923553   9.823980  11.325363   6.194248   2.571007
    43  H   12.652943  11.693649  13.272369   8.223786   4.775661
    44  H   12.706663  12.052925  13.609832   8.928076   6.168099
    45  H   11.012161  10.620801  12.063869   7.884810   6.062193
    46  H    8.953821   8.500416   9.866477   5.758753   4.524724
                   41         42         43         44         45
    41  H    0.000000
    42  H    4.539704   0.000000
    43  H    6.060537   2.448675   0.000000
    44  H    6.141130   4.260505   2.466139   0.000000
    45  H    4.726574   4.915354   4.262489   2.466042   0.000000
    46  H    2.517802   4.263703   4.915601   4.258846   2.445668
                   46
    46  H    0.000000
 Stoichiometry    C22H18ClNO3S
 Framework group  C1[X(C22H18ClNO3S)]
 Deg. of freedom   132
 Full point group                 C1      NOp   1
 Largest Abelian subgroup         C1      NOp   1
 Largest concise Abelian subgroup C1      NOp   1
                         Standard orientation:                         
 ---------------------------------------------------------------------
 Center     Atomic      Atomic             Coordinates (Angstroms)
 Number     Number       Type             X           Y           Z
 ---------------------------------------------------------------------
      1          6           0        3.071684    1.309390   -1.535332
      2          6           0        3.413619    0.844912   -0.275743
      3          6           0        3.803999    1.750957    0.700054
      4          6           0        3.842380    3.103171    0.415629
      5          6           0        3.478394    3.586710   -0.837533
      6          6           0        3.093057    2.668488   -1.804736
      7          7           0        3.415046   -0.547734    0.024607
      8          6           0        2.370480   -1.388912   -0.116978
      9          6           0        2.387877   -2.721076   -0.189129
     10          6           0        0.920773   -0.947189   -0.156856
     11          6           0        1.026671   -3.232686   -0.286203
     12          8           0        0.204789   -2.154522   -0.300270
     13         17           0        3.771579   -3.739188   -0.162327
     14          8           0        0.621662   -4.337802   -0.355621
     15          6           0        3.484970    5.069270   -1.124990
     16          6           0        0.467584   -0.232339    1.125158
     17          6           0       -0.934698    0.324098    1.013398
     18          8           0        0.620410   -1.070187    2.230250
     19         16           0       -1.378317    1.702723    1.970364
     20          6           0       -2.993392    1.651464    1.378874
     21          6           0       -3.193601    0.641951    0.505736
     22          6           0       -1.987683   -0.124746    0.301971
     23          6           0       -4.482740    0.347715   -0.168397
     24          6           0       -5.690684    0.475999    0.512138
     25          6           0       -6.892222    0.216338   -0.123772
     26          6           0       -6.907679   -0.185229   -1.449282
     27          6           0       -5.711821   -0.324545   -2.133910
     28          6           0       -4.510453   -0.060066   -1.499471
     29          1           0        0.721599   -0.322269   -1.016910
     30          1           0        1.146482    0.593370    1.288682
     31          1           0        2.804442    0.611309   -2.309056
     32          1           0        4.071429    1.390440    1.677334
     33          1           0        4.150479    3.792115    1.182884
     34          1           0        2.820017    3.011749   -2.787270
     35          1           0        4.305364   -0.983701    0.123009
     36          1           0        3.534881    5.263318   -2.189994
     37          1           0        2.582496    5.539808   -0.744749
     38          1           0        4.332117    5.556195   -0.654647
     39          1           0       -0.055997   -1.730235    2.218821
     40          1           0       -3.704388    2.389514    1.690638
     41          1           0       -1.944829   -0.988632   -0.332180
     42          1           0       -5.687992    0.759968    1.549319
     43          1           0       -7.815043    0.317148    0.419907
     44          1           0       -7.841138   -0.392114   -1.941895
     45          1           0       -5.712922   -0.635646   -3.163678
     46          1           0       -3.590065   -0.157541   -2.047352
 ---------------------------------------------------------------------
 Rotational constants (GHZ):      0.1902533      0.0925348      0.0715879
 Leave Link  202 at Wed Jul 10 04:30:27 2019, MaxMem=   209715200 cpu:         0.0
 (Enter C:\G09W\l301.exe)
 Standard basis: 6-311++G(d,p) (5D, 7F)
 Ernie: Thresh=  0.10000D-02 Tol=  0.10000D-05 Strict=F.
 There are   786 symmetry adapted cartesian basis functions of A   symmetry.
 There are   758 symmetry adapted basis functions of A   symmetry.
   758 basis functions,  1201 primitive gaussians,   786 cartesian basis functions
   107 alpha electrons      107 beta electrons
       nuclear repulsion energy      2775.2382286852 Hartrees.
 IExCor=  402 DFT=T Ex+Corr=B3LYP ExCW=0 ScaHFX=  0.200000
 ScaDFX=  0.800000  0.720000  1.000000  0.810000 ScalE2=  1.000000  1.000000
 IRadAn=      0 IRanWt=     -1 IRanGd=            0 ICorTp=0 IEmpDi=  4
 NAtoms=   46 NActive=   46 NUniq=   46 SFac= 1.00D+00 NAtFMM=   60 NAOKFM=F Big=F
 Integral buffers will be    262144 words long.
 Raffenetti 2 integral format.
 Two-electron integral symmetry is turned on.
 Leave Link  301 at Wed Jul 10 04:30:27 2019, MaxMem=   209715200 cpu:         0.0
 (Enter C:\G09W\l302.exe)
 NPDir=0 NMtPBC=     1 NCelOv=     1 NCel=       1 NClECP=     1 NCelD=      1
         NCelK=      1 NCelE2=     1 NClLst=     1 CellRange=     0.0.
 One-electron integrals computed using PRISM.
 NBasis=   758 RedAO= T EigKep=  1.05D-06  NBF=   758
 NBsUse=   752 1.00D-06 EigRej=  9.15D-07 NBFU=   752
 Precomputing XC quadrature grid using
 IXCGrd= 4 IRadAn=           0 IRanWt=          -1 IRanGd=           0 AccXCQ= 0.00D+00.
 Generated NRdTot=       0 NPtTot=           0 NUsed=           0 NTot=          16
 NSgBfM=   754   754   754   754   754 MxSgAt=    46 MxSgA2=    46.
 Leave Link  302 at Wed Jul 10 04:30:31 2019, MaxMem=   209715200 cpu:         4.0
 (Enter C:\G09W\l303.exe)
 DipDrv:  MaxL=1.
 Leave Link  303 at Wed Jul 10 04:30:32 2019, MaxMem=   209715200 cpu:         1.0
 (Enter C:\G09W\l401.exe)
 ExpMin= 3.60D-02 ExpMax= 1.06D+05 ExpMxC= 3.62D+03 IAcc=3 IRadAn=         5 AccDes= 0.00D+00
 Harris functional with IExCor=  402 and IRadAn=       5 diagonalized for initial guess.
 HarFok:  IExCor=  402 AccDes= 0.00D+00 IRadAn=         5 IDoV= 1 UseB2=F ITyADJ=14
 ICtDFT=  3500011 ScaDFX=  1.000000  1.000000  1.000000  1.000000
 FoFCou: FMM=F IPFlag=           0 FMFlag=      100000 FMFlg1=           0
         NFxFlg=           0 DoJE=T BraDBF=F KetDBF=T FulRan=T
         wScrn=  0.000000 ICntrl=     500 IOpCl=  0 I1Cent=   200000004 NGrid=           0
         NMat0=    1 NMatS0=      1 NMatT0=    0 NMatD0=    1 NMtDS0=    0 NMtDT0=    0
 Petite list used in FoFCou.
 Harris En= -1988.30810577563    
 JPrj=0 DoOrth=F DoCkMO=F.
 Leave Link  401 at Wed Jul 10 04:31:23 2019, MaxMem=   209715200 cpu:        51.0
 (Enter C:\G09W\l502.exe)
 Closed shell SCF:
 Using DIIS extrapolation, IDIIS=  1040.
 Integral symmetry usage will be decided dynamically.
 IVT=     1881427 IEndB=     1881427 NGot=   209715200 MDV=   208468996
 LenX=   208468996 LenY=   207850414
 Requested convergence on RMS density matrix=1.00D-08 within 128 cycles.
 Requested convergence on MAX density matrix=1.00D-06.
 Requested convergence on             energy=1.00D-06.
 No special actions if energy rises.
 Fock matrices will be formed incrementally for  20 cycles.

 Cycle   1  Pass 1  IDiag  1:
 FoFJK:  IHMeth= 1 ICntrl=       0 DoSepK=F KAlg= 0 I1Cent=   0 FoldK=F
 IRaf= 730000000 NMat=   1 IRICut=       1 DoRegI=T DoRafI=F ISym2E= 0.
 FoFCou: FMM=F IPFlag=           0 FMFlag=      100000 FMFlg1=           0
         NFxFlg=           0 DoJE=F BraDBF=F KetDBF=F FulRan=T
         wScrn=  0.000000 ICntrl=       0 IOpCl=  0 I1Cent=           0 NGrid=           0
         NMat0=    1 NMatS0=      1 NMatT0=    0 NMatD0=    1 NMtDS0=    0 NMtDT0=    0
 Symmetry not used in FoFCou.
 E= -1987.55238700680    
 DIIS: error= 1.45D-02 at cycle   1 NSaved=   1.
 NSaved= 1 IEnMin= 1 EnMin= -1987.55238700680     IErMin= 1 ErrMin= 1.45D-02
 ErrMax= 1.45D-02  0.00D+00 EMaxC= 1.00D-01 BMatC= 9.08D-01 BMatP= 9.08D-01
 IDIUse=3 WtCom= 8.55D-01 WtEn= 1.45D-01
 Coeff-Com:  0.100D+01
 Coeff-En:   0.100D+01
 Coeff:      0.100D+01
 Gap=     0.372 Goal=   None    Shift=    0.000
 GapD=    0.372 DampG=1.000 DampE=0.500 DampFc=0.5000 IDamp=-1.
 Damping current iteration by 5.00D-01
 RMSDP=5.79D-02 MaxDP=7.11D+00              OVMax= 3.03D-01

 Cycle   2  Pass 1  IDiag  1:
 RMSU=  2.68D-02    CP:  1.17D+00
 E= -1987.80199141789     Delta-E=       -0.249604411096 Rises=F Damp=T
 DIIS: error= 6.23D-03 at cycle   2 NSaved=   2.
 NSaved= 2 IEnMin= 2 EnMin= -1987.80199141789     IErMin= 2 ErrMin= 6.23D-03
 ErrMax= 6.23D-03  0.00D+00 EMaxC= 1.00D-01 BMatC= 1.03D-01 BMatP= 9.08D-01
 IDIUse=3 WtCom= 9.38D-01 WtEn= 6.23D-02
 Coeff-Com:  0.144D+00 0.856D+00
 Coeff-En:   0.299D+00 0.701D+00
 Coeff:      0.154D+00 0.846D+00
 Gap=     0.245 Goal=   None    Shift=    0.000
 RMSDP=3.14D-02 MaxDP=3.77D+00 DE=-2.50D-01 OVMax= 2.96D-01

 Cycle   3  Pass 1  IDiag  1:
 RMSU=  9.56D-03    CP:  9.06D-01  8.08D-02
 E= -1988.23727257411     Delta-E=       -0.435281156222 Rises=F Damp=F
 DIIS: error= 9.60D-03 at cycle   3 NSaved=   3.
 NSaved= 3 IEnMin= 3 EnMin= -1988.23727257411     IErMin= 2 ErrMin= 6.23D-03
 ErrMax= 9.60D-03  0.00D+00 EMaxC= 1.00D-01 BMatC= 1.04D-01 BMatP= 1.03D-01
 IDIUse=3 WtCom= 9.04D-01 WtEn= 9.60D-02
 Coeff-Com:  0.171D-02 0.502D+00 0.496D+00
 Coeff-En:   0.000D+00 0.000D+00 0.100D+01
 Coeff:      0.154D-02 0.454D+00 0.545D+00
 Gap=     0.205 Goal=   None    Shift=    0.000
 RMSDP=6.19D-03 MaxDP=6.91D-01 DE=-4.35D-01 OVMax= 1.04D-01

 Cycle   4  Pass 1  IDiag  1:
 RMSU=  5.61D-03    CP:  9.03D-01  1.71D-01  8.91D-01
 E= -1988.30416274808     Delta-E=       -0.066890173966 Rises=F Damp=F
 DIIS: error= 4.90D-03 at cycle   4 NSaved=   4.
 NSaved= 4 IEnMin= 4 EnMin= -1988.30416274808     IErMin= 4 ErrMin= 4.90D-03
 ErrMax= 4.90D-03  0.00D+00 EMaxC= 1.00D-01 BMatC= 3.08D-02 BMatP= 1.03D-01
 IDIUse=3 WtCom= 9.51D-01 WtEn= 4.90D-02
 Coeff-Com: -0.246D-01 0.142D+00 0.372D+00 0.511D+00
 Coeff-En:   0.000D+00 0.000D+00 0.269D+00 0.731D+00
 Coeff:     -0.234D-01 0.135D+00 0.367D+00 0.522D+00
 Gap=     0.187 Goal=   None    Shift=    0.000
 RMSDP=3.84D-03 MaxDP=4.81D-01 DE=-6.69D-02 OVMax= 3.92D-02

 Cycle   5  Pass 1  IDiag  1:
 RMSU=  2.19D-03    CP:  8.73D-01  1.85D-01  8.80D-01  5.61D-01
 E= -1988.33111732603     Delta-E=       -0.026954577949 Rises=F Damp=F
 DIIS: error= 1.03D-03 at cycle   5 NSaved=   5.
 NSaved= 5 IEnMin= 5 EnMin= -1988.33111732603     IErMin= 5 ErrMin= 1.03D-03
 ErrMax= 1.03D-03  0.00D+00 EMaxC= 1.00D-01 BMatC= 1.60D-03 BMatP= 3.08D-02
 IDIUse=3 WtCom= 9.90D-01 WtEn= 1.03D-02
 Coeff-Com: -0.125D-01 0.383D-01 0.161D+00 0.295D+00 0.518D+00
 Coeff-En:   0.000D+00 0.000D+00 0.000D+00 0.000D+00 0.100D+01
 Coeff:     -0.124D-01 0.379D-01 0.159D+00 0.292D+00 0.523D+00
 Gap=     0.185 Goal=   None    Shift=    0.000
 RMSDP=1.06D-03 MaxDP=1.26D-01 DE=-2.70D-02 OVMax= 1.31D-02

 Cycle   6  Pass 1  IDiag  1:
 RMSU=  6.02D-04    CP:  8.68D-01  1.72D-01  9.22D-01  6.41D-01  8.17D-01
 E= -1988.33243926831     Delta-E=       -0.001321942279 Rises=F Damp=F
 DIIS: error= 3.41D-04 at cycle   6 NSaved=   6.
 NSaved= 6 IEnMin= 6 EnMin= -1988.33243926831     IErMin= 6 ErrMin= 3.41D-04
 ErrMax= 3.41D-04  0.00D+00 EMaxC= 1.00D-01 BMatC= 2.21D-04 BMatP= 1.60D-03
 IDIUse=3 WtCom= 9.97D-01 WtEn= 3.41D-03
 Coeff-Com: -0.408D-02 0.405D-02 0.471D-01 0.110D+00 0.318D+00 0.525D+00
 Coeff-En:   0.000D+00 0.000D+00 0.000D+00 0.000D+00 0.107D+00 0.893D+00
 Coeff:     -0.407D-02 0.404D-02 0.469D-01 0.109D+00 0.317D+00 0.527D+00
 Gap=     0.186 Goal=   None    Shift=    0.000
 RMSDP=3.95D-04 MaxDP=5.02D-02 DE=-1.32D-03 OVMax= 4.76D-03

 Cycle   7  Pass 1  IDiag  1:
 RMSU=  2.21D-04    CP:  8.71D-01  1.73D-01  9.18D-01  6.20D-01  8.09D-01
                    CP:  6.20D-01
 E= -1988.33263582542     Delta-E=       -0.000196557106 Rises=F Damp=F
 DIIS: error= 1.47D-04 at cycle   7 NSaved=   7.
 NSaved= 7 IEnMin= 7 EnMin= -1988.33263582542     IErMin= 7 ErrMin= 1.47D-04
 ErrMax= 1.47D-04  0.00D+00 EMaxC= 1.00D-01 BMatC= 2.36D-05 BMatP= 2.21D-04
 IDIUse=3 WtCom= 9.99D-01 WtEn= 1.47D-03
 Coeff-Com: -0.129D-02-0.401D-03 0.158D-01 0.423D-01 0.148D+00 0.317D+00
 Coeff-Com:  0.479D+00
 Coeff-En:   0.000D+00 0.000D+00 0.000D+00 0.000D+00 0.000D+00 0.450D-01
 Coeff-En:   0.955D+00
 Coeff:     -0.129D-02-0.401D-03 0.158D-01 0.423D-01 0.147D+00 0.316D+00
 Coeff:      0.480D+00
 Gap=     0.185 Goal=   None    Shift=    0.000
 RMSDP=1.31D-04 MaxDP=1.32D-02 DE=-1.97D-04 OVMax= 1.42D-03

 Cycle   8  Pass 1  IDiag  1:
 RMSU=  5.31D-05    CP:  8.71D-01  1.71D-01  9.19D-01  6.31D-01  7.86D-01
                    CP:  6.51D-01  7.19D-01
 E= -1988.33265717092     Delta-E=       -0.000021345509 Rises=F Damp=F
 DIIS: error= 5.36D-05 at cycle   8 NSaved=   8.
 NSaved= 8 IEnMin= 8 EnMin= -1988.33265717092     IErMin= 8 ErrMin= 5.36D-05
 ErrMax= 5.36D-05  0.00D+00 EMaxC= 1.00D-01 BMatC= 2.24D-06 BMatP= 2.36D-05
 IDIUse=1 WtCom= 1.00D+00 WtEn= 0.00D+00
 Coeff-Com:  0.180D-06-0.994D-03 0.194D-02 0.715D-02 0.340D-01 0.946D-01
 Coeff-Com:  0.267D+00 0.596D+00
 Coeff:      0.180D-06-0.994D-03 0.194D-02 0.715D-02 0.340D-01 0.946D-01
 Coeff:      0.267D+00 0.596D+00
 Gap=     0.185 Goal=   None    Shift=    0.000
 RMSDP=2.95D-05 MaxDP=3.55D-03 DE=-2.13D-05 OVMax= 4.40D-04

 Cycle   9  Pass 1  IDiag  1:
 RMSU=  1.73D-05    CP:  8.71D-01  1.71D-01  9.18D-01  6.29D-01  7.93D-01
                    CP:  6.49D-01  7.42D-01  9.24D-01
 E= -1988.33265905465     Delta-E=       -0.000001883727 Rises=F Damp=F
 DIIS: error= 2.20D-05 at cycle   9 NSaved=   9.
 NSaved= 9 IEnMin= 9 EnMin= -1988.33265905465     IErMin= 9 ErrMin= 2.20D-05
 ErrMax= 2.20D-05  0.00D+00 EMaxC= 1.00D-01 BMatC= 3.08D-07 BMatP= 2.24D-06
 IDIUse=1 WtCom= 1.00D+00 WtEn= 0.00D+00
 Coeff-Com:  0.163D-03-0.600D-03-0.537D-03-0.410D-03 0.446D-02 0.228D-01
 Coeff-Com:  0.107D+00 0.349D+00 0.518D+00
 Coeff:      0.163D-03-0.600D-03-0.537D-03-0.410D-03 0.446D-02 0.228D-01
 Coeff:      0.107D+00 0.349D+00 0.518D+00
 Gap=     0.185 Goal=   None    Shift=    0.000
 RMSDP=9.05D-06 MaxDP=7.66D-04 DE=-1.88D-06 OVMax= 1.75D-04

 Cycle  10  Pass 1  IDiag  1:
 RMSU=  4.86D-06    CP:  8.71D-01  1.71D-01  9.19D-01  6.29D-01  7.94D-01
                    CP:  6.54D-01  7.60D-01  9.35D-01  8.37D-01
 E= -1988.33265934671     Delta-E=       -0.000000292058 Rises=F Damp=F
 DIIS: error= 5.10D-06 at cycle  10 NSaved=  10.
 NSaved=10 IEnMin=10 EnMin= -1988.33265934671     IErMin=10 ErrMin= 5.10D-06
 ErrMax= 5.10D-06  0.00D+00 EMaxC= 1.00D-01 BMatC= 1.94D-08 BMatP= 3.08D-07
 IDIUse=1 WtCom= 1.00D+00 WtEn= 0.00D+00
 Coeff-Com:  0.782D-04-0.189D-03-0.370D-03-0.830D-03-0.946D-03 0.227D-02
 Coeff-Com:  0.264D-01 0.110D+00 0.258D+00 0.606D+00
 Coeff:      0.782D-04-0.189D-03-0.370D-03-0.830D-03-0.946D-03 0.227D-02
 Coeff:      0.264D-01 0.110D+00 0.258D+00 0.606D+00
 Gap=     0.185 Goal=   None    Shift=    0.000
 RMSDP=3.00D-06 MaxDP=5.32D-04 DE=-2.92D-07 OVMax= 4.20D-05

 Cycle  11  Pass 1  IDiag  1:
 RMSU=  2.19D-06    CP:  8.71D-01  1.71D-01  9.19D-01  6.29D-01  7.93D-01
                    CP:  6.54D-01  7.65D-01  9.42D-01  8.07D-01  7.27D-01
 E= -1988.33265936397     Delta-E=       -0.000000017258 Rises=F Damp=F
 DIIS: error= 1.92D-06 at cycle  11 NSaved=  11.
 NSaved=11 IEnMin=11 EnMin= -1988.33265936397     IErMin=11 ErrMin= 1.92D-06
 ErrMax= 1.92D-06  0.00D+00 EMaxC= 1.00D-01 BMatC= 3.44D-09 BMatP= 1.94D-08
 IDIUse=1 WtCom= 1.00D+00 WtEn= 0.00D+00
 Coeff-Com:  0.279D-04-0.510D-04-0.149D-03-0.423D-03-0.924D-03-0.707D-03
 Coeff-Com:  0.478D-02 0.286D-01 0.974D-01 0.359D+00 0.513D+00
 Coeff:      0.279D-04-0.510D-04-0.149D-03-0.423D-03-0.924D-03-0.707D-03
 Coeff:      0.478D-02 0.286D-01 0.974D-01 0.359D+00 0.513D+00
 Gap=     0.185 Goal=   None    Shift=    0.000
 RMSDP=1.37D-06 MaxDP=1.75D-04 DE=-1.73D-08 OVMax= 1.80D-05

 Cycle  12  Pass 1  IDiag  1:
 RMSU=  8.17D-07    CP:  8.71D-01  1.71D-01  9.19D-01  6.29D-01  7.93D-01
                    CP:  6.54D-01  7.66D-01  9.41D-01  8.35D-01  7.64D-01
                    CP:  6.53D-01
 E= -1988.33265936705     Delta-E=       -0.000000003080 Rises=F Damp=F
 DIIS: error= 7.64D-07 at cycle  12 NSaved=  12.
 NSaved=12 IEnMin=12 EnMin= -1988.33265936705     IErMin=12 ErrMin= 7.64D-07
 ErrMax= 7.64D-07  0.00D+00 EMaxC= 1.00D-01 BMatC= 4.15D-10 BMatP= 3.44D-09
 IDIUse=1 WtCom= 1.00D+00 WtEn= 0.00D+00
 Coeff-Com:  0.460D-05-0.242D-05-0.342D-04-0.132D-03-0.454D-03-0.800D-03
 Coeff-Com: -0.116D-02 0.562D-03 0.191D-01 0.126D+00 0.299D+00 0.558D+00
 Coeff:      0.460D-05-0.242D-05-0.342D-04-0.132D-03-0.454D-03-0.800D-03
 Coeff:     -0.116D-02 0.562D-03 0.191D-01 0.126D+00 0.299D+00 0.558D+00
 Gap=     0.185 Goal=   None    Shift=    0.000
 RMSDP=4.72D-07 MaxDP=4.62D-05 DE=-3.08D-09 OVMax= 1.00D-05

 Cycle  13  Pass 1  IDiag  1:
 RMSU=  3.39D-07    CP:  8.71D-01  1.71D-01  9.19D-01  6.29D-01  7.93D-01
                    CP:  6.54D-01  7.65D-01  9.43D-01  8.35D-01  7.61D-01
                    CP:  7.02D-01  7.73D-01
 E= -1988.33265936720     Delta-E=       -0.000000000151 Rises=F Damp=F
 DIIS: error= 2.40D-07 at cycle  13 NSaved=  13.
 NSaved=13 IEnMin=13 EnMin= -1988.33265936720     IErMin=13 ErrMin= 2.40D-07
 ErrMax= 2.40D-07  0.00D+00 EMaxC= 1.00D-01 BMatC= 6.79D-11 BMatP= 4.15D-10
 IDIUse=1 WtCom= 1.00D+00 WtEn= 0.00D+00
 Coeff-Com: -0.910D-06 0.476D-05-0.455D-06-0.197D-04-0.140D-03-0.329D-03
 Coeff-Com: -0.123D-02-0.327D-02-0.219D-02 0.244D-01 0.107D+00 0.344D+00
 Coeff-Com:  0.531D+00
 Coeff:     -0.910D-06 0.476D-05-0.455D-06-0.197D-04-0.140D-03-0.329D-03
 Coeff:     -0.123D-02-0.327D-02-0.219D-02 0.244D-01 0.107D+00 0.344D+00
 Coeff:      0.531D+00
 Gap=     0.185 Goal=   None    Shift=    0.000
 RMSDP=2.15D-07 MaxDP=2.40D-05 DE=-1.51D-10 OVMax= 2.58D-06

 Cycle  14  Pass 1  IDiag  1:
 RMSU=  9.14D-08    CP:  8.71D-01  1.71D-01  9.19D-01  6.29D-01  7.93D-01
                    CP:  6.54D-01  7.66D-01  9.43D-01  8.37D-01  7.72D-01
                    CP:  7.15D-01  8.25D-01  6.81D-01
 E= -1988.33265936760     Delta-E=       -0.000000000406 Rises=F Damp=F
 DIIS: error= 5.74D-08 at cycle  14 NSaved=  14.
 NSaved=14 IEnMin=14 EnMin= -1988.33265936760     IErMin=14 ErrMin= 5.74D-08
 ErrMax= 5.74D-08  0.00D+00 EMaxC= 1.00D-01 BMatC= 4.00D-12 BMatP= 6.79D-11
 IDIUse=1 WtCom= 1.00D+00 WtEn= 0.00D+00
 Coeff-Com: -0.780D-06 0.232D-05 0.303D-05 0.292D-05-0.295D-04-0.843D-04
 Coeff-Com: -0.489D-03-0.158D-02-0.303D-02-0.682D-03 0.237D-01 0.113D+00
 Coeff-Com:  0.260D+00 0.609D+00
 Coeff:     -0.780D-06 0.232D-05 0.303D-05 0.292D-05-0.295D-04-0.843D-04
 Coeff:     -0.489D-03-0.158D-02-0.303D-02-0.682D-03 0.237D-01 0.113D+00
 Coeff:      0.260D+00 0.609D+00
 Gap=     0.185 Goal=   None    Shift=    0.000
 RMSDP=4.47D-08 MaxDP=3.57D-06 DE=-4.06D-10 OVMax= 7.41D-07

 Cycle  15  Pass 1  IDiag  1:
 RMSU=  2.59D-08    CP:  8.71D-01  1.71D-01  9.19D-01  6.29D-01  7.93D-01
                    CP:  6.54D-01  7.66D-01  9.43D-01  8.37D-01  7.72D-01
                    CP:  7.23D-01  8.32D-01  6.77D-01  8.58D-01
 E= -1988.33265936721     Delta-E=        0.000000000395 Rises=F Damp=F
 DIIS: error= 1.92D-08 at cycle  15 NSaved=  15.
 NSaved=15 IEnMin=14 EnMin= -1988.33265936760     IErMin=15 ErrMin= 1.92D-08
 ErrMax= 1.92D-08  0.00D+00 EMaxC= 1.00D-01 BMatC= 5.30D-13 BMatP= 4.00D-12
 IDIUse=1 WtCom= 1.00D+00 WtEn= 0.00D+00
 Coeff-Com: -0.318D-06 0.724D-06 0.168D-05 0.359D-05-0.250D-05-0.160D-04
 Coeff-Com: -0.159D-03-0.582D-03-0.159D-02-0.321D-02 0.199D-02 0.255D-01
 Coeff-Com:  0.872D-01 0.324D+00 0.567D+00
 Coeff:     -0.318D-06 0.724D-06 0.168D-05 0.359D-05-0.250D-05-0.160D-04
 Coeff:     -0.159D-03-0.582D-03-0.159D-02-0.321D-02 0.199D-02 0.255D-01
 Coeff:      0.872D-01 0.324D+00 0.567D+00
 Gap=     0.185 Goal=   None    Shift=    0.000
 RMSDP=2.55D-08 MaxDP=3.52D-06 DE= 3.95D-10 OVMax= 1.69D-07

 Cycle  16  Pass 1  IDiag  1:
 RMSU=  1.13D-08    CP:  8.71D-01  1.71D-01  9.19D-01  6.29D-01  7.93D-01
                    CP:  6.54D-01  7.66D-01  9.43D-01  8.37D-01  7.72D-01
                    CP:  7.22D-01  8.37D-01  6.97D-01  8.20D-01  7.72D-01
 E= -1988.33265936705     Delta-E=        0.000000000158 Rises=F Damp=F
 DIIS: error= 7.64D-09 at cycle  16 NSaved=  16.
 NSaved=16 IEnMin=14 EnMin= -1988.33265936760     IErMin=16 ErrMin= 7.64D-09
 ErrMax= 7.64D-09  0.00D+00 EMaxC= 1.00D-01 BMatC= 9.44D-14 BMatP= 5.30D-13
 IDIUse=1 WtCom= 1.00D+00 WtEn= 0.00D+00
 Coeff-Com: -0.851D-07 0.174D-06 0.734D-06 0.167D-05 0.121D-05-0.194D-05
 Coeff-Com: -0.400D-04-0.157D-03-0.542D-03-0.152D-02-0.974D-03 0.208D-02
 Coeff-Com:  0.225D-01 0.116D+00 0.343D+00 0.519D+00
 Coeff:     -0.851D-07 0.174D-06 0.734D-06 0.167D-05 0.121D-05-0.194D-05
 Coeff:     -0.400D-04-0.157D-03-0.542D-03-0.152D-02-0.974D-03 0.208D-02
 Coeff:      0.225D-01 0.116D+00 0.343D+00 0.519D+00
 Gap=     0.185 Goal=   None    Shift=    0.000
 RMSDP=6.67D-09 MaxDP=8.44D-07 DE= 1.58D-10 OVMax= 7.33D-08

 SCF Done:  E(RB3LYP) =  -1988.33265937     A.U. after   16 cycles
            NFock= 16  Conv=0.67D-08     -V/T= 2.0027
 KE= 1.983012066766D+03 PE=-1.022267137491D+04 EE= 3.476088420095D+03
 Leave Link  502 at Wed Jul 10 05:13:30 2019, MaxMem=   209715200 cpu:      2527.0
 (Enter C:\G09W\l601.exe)
 Copying SCF densities to generalized density rwf, IOpCl= 0 IROHF=0.

 **********************************************************************

            Population analysis using the SCF density.

 **********************************************************************

 Orbital symmetries:
       Occupied  (A) (A) (A) (A) (A) (A) (A) (A) (A) (A) (A) (A)
                 (A) (A) (A) (A) (A) (A) (A) (A) (A) (A) (A) (A)
                 (A) (A) (A) (A) (A) (A) (A) (A) (A) (A) (A) (A)
                 (A) (A) (A) (A) (A) (A) (A) (A) (A) (A) (A) (A)
                 (A) (A) (A) (A) (A) (A) (A) (A) (A) (A) (A) (A)
                 (A) (A) (A) (A) (A) (A) (A) (A) (A) (A) (A) (A)
                 (A) (A) (A) (A) (A) (A) (A) (A) (A) (A) (A) (A)
                 (A) (A) (A) (A) (A) (A) (A) (A) (A) (A) (A) (A)
                 (A) (A) (A) (A) (A) (A) (A) (A) (A) (A) (A)
       Virtual   (A) (A) (A) (A) (A) (A) (A) (A) (A) (A) (A) (A)
                 (A) (A) (A) (A) (A) (A) (A) (A) (A) (A) (A) (A)
                 (A) (A) (A) (A) (A) (A) (A) (A) (A) (A) (A) (A)
                 (A) (A) (A) (A) (A) (A) (A) (A) (A) (A) (A) (A)
                 (A) (A) (A) (A) (A) (A) (A) (A) (A) (A) (A) (A)
                 (A) (A) (A) (A) (A) (A) (A) (A) (A) (A) (A) (A)
                 (A) (A) (A) (A) (A) (A) (A) (A) (A) (A) (A) (A)
                 (A) (A) (A) (A) (A) (A) (A) (A) (A) (A) (A) (A)
                 (A) (A) (A) (A) (A) (A) (A) (A) (A) (A) (A) (A)
                 (A) (A) (A) (A) (A) (A) (A) (A) (A) (A) (A) (A)
                 (A) (A) (A) (A) (A) (A) (A) (A) (A) (A) (A) (A)
                 (A) (A) (A) (A) (A) (A) (A) (A) (A) (A) (A) (A)
                 (A) (A) (A) (A) (A) (A) (A) (A) (A) (A) (A) (A)
                 (A) (A) (A) (A) (A) (A) (A) (A) (A) (A) (A) (A)
                 (A) (A) (A) (A) (A) (A) (A) (A) (A) (A) (A) (A)
                 (A) (A) (A) (A) (A) (A) (A) (A) (A) (A) (A) (A)
                 (A) (A) (A) (A) (A) (A) (A) (A) (A) (A) (A) (A)
                 (A) (A) (A) (A) (A) (A) (A) (A) (A) (A) (A) (A)
                 (A) (A) (A) (A) (A) (A) (A) (A) (A) (A) (A) (A)
                 (A) (A) (A) (A) (A) (A) (A) (A) (A) (A) (A) (A)
                 (A) (A) (A) (A) (A) (A) (A) (A) (A) (A) (A) (A)
                 (A) (A) (A) (A) (A) (A) (A) (A) (A) (A) (A) (A)
                 (A) (A) (A) (A) (A) (A) (A) (A) (A) (A) (A) (A)
                 (A) (A) (A) (A) (A) (A) (A) (A) (A) (A) (A) (A)
                 (A) (A) (A) (A) (A) (A) (A) (A) (A) (A) (A) (A)
                 (A) (A) (A) (A) (A) (A) (A) (A) (A) (A) (A) (A)
                 (A) (A) (A) (A) (A) (A) (A) (A) (A) (A) (A) (A)
                 (A) (A) (A) (A) (A) (A) (A) (A) (A) (A) (A) (A)
                 (A) (A) (A) (A) (A) (A) (A) (A) (A) (A) (A) (A)
                 (A) (A) (A) (A) (A) (A) (A) (A) (A) (A) (A) (A)
                 (A) (A) (A) (A) (A) (A) (A) (A) (A) (A) (A) (A)
                 (A) (A) (A) (A) (A) (A) (A) (A) (A) (A) (A) (A)
                 (A) (A) (A) (A) (A) (A) (A) (A) (A) (A) (A) (A)
                 (A) (A) (A) (A) (A) (A) (A) (A) (A) (A) (A) (A)
                 (A) (A) (A) (A) (A) (A) (A) (A) (A) (A) (A) (A)
                 (A) (A) (A) (A) (A) (A) (A) (A) (A) (A) (A) (A)
                 (A) (A) (A) (A) (A) (A) (A) (A) (A) (A) (A) (A)
                 (A) (A) (A) (A) (A) (A) (A) (A) (A) (A) (A) (A)
                 (A) (A) (A) (A) (A) (A) (A) (A) (A) (A) (A) (A)
                 (A) (A) (A) (A) (A) (A) (A) (A) (A) (A) (A) (A)
                 (A) (A) (A) (A) (A) (A) (A) (A) (A) (A) (A) (A)
                 (A) (A) (A) (A) (A) (A) (A) (A) (A) (A) (A) (A)
                 (A) (A) (A) (A) (A) (A) (A) (A) (A) (A) (A) (A)
                 (A) (A) (A) (A) (A) (A) (A) (A) (A) (A) (A) (A)
                 (A) (A) (A) (A) (A) (A) (A) (A) (A) (A) (A) (A)
                 (A) (A) (A) (A) (A) (A) (A) (A) (A) (A) (A) (A)
                 (A) (A) (A) (A) (A) (A) (A) (A) (A) (A) (A) (A)
                 (A) (A) (A) (A) (A) (A) (A) (A) (A) (A) (A) (A)
                 (A) (A) (A) (A) (A) (A) (A) (A) (A) (A) (A) (A)
                 (A) (A) (A) (A) (A) (A) (A) (A) (A) (A) (A) (A)
                 (A) (A) (A) (A) (A) (A) (A) (A) (A) (A) (A) (A)
                 (A) (A) (A) (A) (A) (A) (A) (A) (A) (A) (A) (A)
                 (A) (A) (A) (A) (A) (A) (A) (A) (A) (A) (A) (A)
                 (A) (A) (A) (A) (A) (A) (A) (A) (A)
 The electronic state is 1-A.
 Alpha  occ. eigenvalues -- -101.56728 -88.88387 -19.17446 -19.14015 -19.10515
 Alpha  occ. eigenvalues --  -14.37114 -10.30002 -10.26528 -10.25847 -10.25370
 Alpha  occ. eigenvalues --  -10.23941 -10.22833 -10.21299 -10.20687 -10.20313
 Alpha  occ. eigenvalues --  -10.20066 -10.19877 -10.19647 -10.19592 -10.19279
 Alpha  occ. eigenvalues --  -10.19249 -10.18424 -10.18264 -10.17830 -10.17823
 Alpha  occ. eigenvalues --  -10.17767 -10.17762 -10.17658  -9.48167  -7.97054
 Alpha  occ. eigenvalues --   -7.24639  -7.23627  -7.23626  -5.93340  -5.92961
 Alpha  occ. eigenvalues --   -5.92652  -1.13194  -1.06226  -1.04273  -0.99265
 Alpha  occ. eigenvalues --   -0.90348  -0.89782  -0.88121  -0.86932  -0.81787
 Alpha  occ. eigenvalues --   -0.80165  -0.78520  -0.77991  -0.77589  -0.75840
 Alpha  occ. eigenvalues --   -0.74015  -0.72801  -0.71411  -0.67963  -0.64850
 Alpha  occ. eigenvalues --   -0.63611  -0.62329  -0.61952  -0.61525  -0.59424
 Alpha  occ. eigenvalues --   -0.57907  -0.56270  -0.55313  -0.54748  -0.53980
[...]
   516. RY*(  11) C  24                  0.00005     2.39849   
   517. RY*(  12) C  24                  0.00003     1.52015   
   518. RY*(  13) C  24                  0.00002     2.78461   
   519. RY*(  14) C  24                  0.00000     3.01287   
   520. RY*(  15) C  24                  0.00000    20.22127   
   521. RY*(  16) C  24                  0.00001     2.58909   
   522. RY*(  17) C  24                  0.00001     1.59908   
   523. RY*(   1) C  25                  0.00581     1.06142   
   524. RY*(   2) C  25                  0.00212     1.30165   
   525. RY*(   3) C  25                  0.00080     0.48524   
   526. RY*(   4) C  25                  0.00061     1.66500   
   527. RY*(   5) C  25                  0.00044     0.95825   
   528. RY*(   6) C  25                  0.00017     1.47401   
   529. RY*(   7) C  25                  0.00011     3.16592   
   530. RY*(   8) C  25                  0.00006     1.52292   
   531. RY*(   9) C  25                  0.00005     2.87636   
   532. RY*(  10) C  25                  0.00002     3.99652   
   533. RY*(  11) C  25                  0.00001     0.56099   
   534. RY*(  12) C  25                  0.00001     0.72554   
   535. RY*(  13) C  25                  0.00000     1.77477   
   536. RY*(  14) C  25                  0.00001     1.85280   
   537. RY*(  15) C  25                  0.00000    19.87692   
   538. RY*(  16) C  25                  0.00000     1.56580   
   539. RY*(  17) C  25                  0.00000     2.54343   
   540. RY*(   1) C  26                  0.00603     1.10729   
   541. RY*(   2) C  26                  0.00214     1.27167   
   542. RY*(   3) C  26                  0.00103     0.45691   
   543. RY*(   4) C  26                  0.00056     1.65207   
   544. RY*(   5) C  26                  0.00036     0.85043   
   545. RY*(   6) C  26                  0.00035     0.87632   
   546. RY*(   7) C  26                  0.00011     2.93628   
   547. RY*(   8) C  26                  0.00007     2.95923   
   548. RY*(   9) C  26                  0.00004     2.72806   
   549. RY*(  10) C  26                  0.00000     2.76988   
   550. RY*(  11) C  26                  0.00000     0.43489   
   551. RY*(  12) C  26                  0.00000     2.27464   
   552. RY*(  13) C  26                  0.00001     1.57133   
   553. RY*(  14) C  26                  0.00001     1.78682   
   554. RY*(  15) C  26                  0.00000     1.28414   
   555. RY*(  16) C  26                  0.00000    20.16302   
   556. RY*(  17) C  26                  0.00000     2.30899   
   557. RY*(   1) C  27                  0.00585     1.06305   
   558. RY*(   2) C  27                  0.00212     1.30826   
   559. RY*(   3) C  27                  0.00082     0.58487   
   560. RY*(   4) C  27                  0.00060     1.56736   
   561. RY*(   5) C  27                  0.00044     0.95049   
   562. RY*(   6) C  27                  0.00018     1.42450   
   563. RY*(   7) C  27                  0.00011     3.09706   
   564. RY*(   8) C  27                  0.00006     2.36938   
   565. RY*(   9) C  27                  0.00005     2.38949   
   566. RY*(  10) C  27                  0.00001     1.49487   
   567. RY*(  11) C  27                  0.00002     2.20867   
   568. RY*(  12) C  27                  0.00001     2.81695   
   569. RY*(  13) C  27                  0.00000    19.69868   
   570. RY*(  14) C  27                  0.00001     2.68650   
   571. RY*(  15) C  27                  0.00001     1.67457   
   572. RY*(  16) C  27                  0.00001     0.59377   
   573. RY*(  17) C  27                  0.00000     1.52821   
   574. RY*(   1) C  28                  0.00541     1.18183   
   575. RY*(   2) C  28                  0.00197     1.13103   
   576. RY*(   3) C  28                  0.00088     0.73540   
   577. RY*(   4) C  28                  0.00078     0.88447   
   578. RY*(   5) C  28                  0.00060     1.55051   
   579. RY*(   6) C  28                  0.00025     1.49888   
   580. RY*(   7) C  28                  0.00015     2.10345   
   581. RY*(   8) C  28                  0.00011     2.67187   
   582. RY*(   9) C  28                  0.00007     2.11959   
   583. RY*(  10) C  28                  0.00007     1.34476   
   584. RY*(  11) C  28                  0.00004     2.94731   
   585. RY*(  12) C  28                  0.00002     1.47954   
   586. RY*(  13) C  28                  0.00002     1.48353   
   587. RY*(  14) C  28                  0.00001     1.73097   
   588. RY*(  15) C  28                  0.00002     3.27409   
   589. RY*(  16) C  28                  0.00000    19.79398   
   590. RY*(  17) C  28                  0.00000     2.73244   
   591. RY*(   1) H  29                  0.00140     0.88596   
   592. RY*(   2) H  29                  0.00027     1.80101   
   593. RY*(   3) H  29                  0.00019     1.89941   
   594. RY*(   4) H  29                  0.00014     1.80798   
   595. RY*(   5) H  29                  0.00010     2.00434   
   596. RY*(   6) H  29                  0.00010     1.49182   
   597. RY*(   1) H  30                  0.00194     0.54566   
   598. RY*(   2) H  30                  0.00029     1.63481   
   599. RY*(   3) H  30                  0.00026     2.00626   
   600. RY*(   4) H  30                  0.00021     1.46288   
   601. RY*(   5) H  30                  0.00015     2.11974   
   602. RY*(   6) H  30                  0.00010     2.11141   
   603. RY*(   1) H  31                  0.00133     0.50554   
   604. RY*(   2) H  31                  0.00031     2.01759   
   605. RY*(   3) H  31                  0.00023     1.86109   
   606. RY*(   4) H  31                  0.00011     1.84750   
   607. RY*(   5) H  31                  0.00006     0.91377   
   608. RY*(   6) H  31                  0.00004     2.28152   
   609. RY*(   1) H  32                  0.00087     0.87983   
   610. RY*(   2) H  32                  0.00022     1.72938   
   611. RY*(   3) H  32                  0.00017     1.94238   
   612. RY*(   4) H  32                  0.00012     1.93236   
   613. RY*(   5) H  32                  0.00005     0.36434   
   614. RY*(   6) H  32                  0.00004     2.47457   
   615. RY*(   1) H  33                  0.00081     0.77605   
   616. RY*(   2) H  33                  0.00021     2.24140   
   617. RY*(   3) H  33                  0.00019     1.58745   
   618. RY*(   4) H  33                  0.00013     1.81200   
   619. RY*(   5) H  33                  0.00005     0.48390   
   620. RY*(   6) H  33                  0.00004     2.37901   
   621. RY*(   1) H  34                  0.00085     0.78627   
   622. RY*(   2) H  34                  0.00020     2.14594   
   623. RY*(   3) H  34                  0.00019     1.67346   
   624. RY*(   4) H  34                  0.00014     1.53512   
   625. RY*(   5) H  34                  0.00007     0.73540   
   626. RY*(   6) H  34                  0.00004     2.46063   
   627. RY*(   1) H  35                  0.00153     0.87276   
   628. RY*(   2) H  35                  0.00069     1.68896   
   629. RY*(   3) H  35                  0.00040     1.58965   
   630. RY*(   4) H  35                  0.00020     1.99237   
   631. RY*(   5) H  35                  0.00013     1.36437   
   632. RY*(   6) H  35                  0.00005     2.42252   
   633. RY*(   1) H  36                  0.00092     0.64695   
   634. RY*(   2) H  36                  0.00016     1.96627   
   635. RY*(   3) H  36                  0.00012     1.71015   
   636. RY*(   4) H  36                  0.00010     1.33726   
   637. RY*(   5) H  36                  0.00005     0.96414   
   638. RY*(   6) H  36                  0.00002     2.47408   
   639. RY*(   1) H  37                  0.00096     0.64482   
   640. RY*(   2) H  37                  0.00018     1.82747   
   641. RY*(   3) H  37                  0.00014     1.77015   
   642. RY*(   4) H  37                  0.00012     0.60531   
   643. RY*(   5) H  37                  0.00006     1.95607   
   644. RY*(   6) H  37                  0.00004     2.37497   
   645. RY*(   1) H  38                  0.00091     0.63217   
   646. RY*(   2) H  38                  0.00016     1.90731   
   647. RY*(   3) H  38                  0.00012     1.75471   
   648. RY*(   4) H  38                  0.00009     1.27580   
   649. RY*(   5) H  38                  0.00005     1.23339   
   650. RY*(   6) H  38                  0.00002     2.30475   
   651. RY*(   1) H  39                  0.00171     1.65514   
   652. RY*(   2) H  39                  0.00129     1.78432   
   653. RY*(   3) H  39                  0.00068     1.55794   
   654. RY*(   4) H  39                  0.00030     1.17131   
   655. RY*(   5) H  39                  0.00019     0.58163   
   656. RY*(   6) H  39                  0.00001     2.53694   
   657. RY*(   1) H  40                  0.00079     1.39766   
   658. RY*(   2) H  40                  0.00041     1.24406   
   659. RY*(   3) H  40                  0.00014     1.56180   
   660. RY*(   4) H  40                  0.00010     0.65839   
   661. RY*(   5) H  40                  0.00006     2.38832   
   662. RY*(   6) H  40                  0.00004     1.86055   
   663. RY*(   1) H  41                  0.00118     1.37635   
   664. RY*(   2) H  41                  0.00031     1.57801   
   665. RY*(   3) H  41                  0.00024     1.46884   
   666. RY*(   4) H  41                  0.00015     1.91802   
   667. RY*(   5) H  41                  0.00011     0.80757   
   668. RY*(   6) H  41                  0.00005     2.44414   
   669. RY*(   1) H  42                  0.00145     0.47634   
   670. RY*(   2) H  42                  0.00030     2.39977   
   671. RY*(   3) H  42                  0.00020     1.56642   
   672. RY*(   4) H  42                  0.00013     1.69969   
   673. RY*(   5) H  42                  0.00009     0.62754   
   674. RY*(   6) H  42                  0.00004     2.64687   
   675. RY*(   1) H  43                  0.00084     0.65296   
   676. RY*(   2) H  43                  0.00020     2.32783   
   677. RY*(   3) H  43                  0.00020     1.59278   
   678. RY*(   4) H  43                  0.00011     1.97260   
   679. RY*(   5) H  43                  0.00004     2.48688   
   680. RY*(   6) H  43                  0.00001     0.20017   
   681. RY*(   1) H  44                  0.00077     0.67415   
   682. RY*(   2) H  44                  0.00020     1.59959   
   683. RY*(   3) H  44                  0.00019     2.34309   
   684. RY*(   4) H  44                  0.00011     1.97271   
   685. RY*(   5) H  44                  0.00003     2.47112   
   686. RY*(   6) H  44                  0.00001     0.17937   
   687. RY*(   1) H  45                  0.00083     0.66488   
   688. RY*(   2) H  45                  0.00020     2.23982   
   689. RY*(   3) H  45                  0.00019     1.67643   
   690. RY*(   4) H  45                  0.00011     1.97568   
   691. RY*(   5) H  45                  0.00004     2.48667   
   692. RY*(   6) H  45                  0.00002     0.20592   
   693. RY*(   1) H  46                  0.00141     0.49696   
   694. RY*(   2) H  46                  0.00032     2.27814   
   695. RY*(   3) H  46                  0.00021     1.11486   
   696. RY*(   4) H  46                  0.00012     1.37713   
   697. RY*(   5) H  46                  0.00006     0.69313   
   698. RY*(   6) H  46                  0.00004     2.29901   
   699. BD*(   1) C   1 - C   2          0.02692     0.54457   
   700. BD*(   2) C   1 - C   2          0.39432     0.00151  706(v),711(v),110(g),717(r)
                                                    715(v),144(v),714(v),128(g)
                                                    129(g)
   701. BD*(   1) C   1 - C   6          0.01388     0.55995   
   702. BD*(   1) C   1 - H  31          0.01322     0.41652   
   703. BD*(   1) C   2 - C   3          0.02473     0.54301   
   704. BD*(   1) C   2 - N   7          0.03005     0.38123   
   705. BD*(   1) C   3 - C   4          0.01338     0.56349   
   706. BD*(   2) C   3 - C   4          0.32128     0.01007  711(v),700(v),162(g),144(g)
                                                    145(g),161(g)
   707. BD*(   1) C   3 - H  32          0.01275     0.41643   
   708. BD*(   1) C   4 - C   5          0.02416     0.55939   
   709. BD*(   1) C   4 - H  33          0.01389     0.42220   
   710. BD*(   1) C   5 - C   6          0.02363     0.56445   
   711. BD*(   2) C   5 - C   6          0.33774     0.01853  706(v),700(v),195(g),728(v)
                                                    161(v),729(v)
   712. BD*(   1) C   5 - C  15          0.01572     0.40440   
   713. BD*(   1) C   6 - H  34          0.01410     0.42235   
   714. BD*(   1) N   7 - C   8          0.02722     0.45992   
   715. BD*(   1) N   7 - H  35          0.02233     0.36482   
   716. BD*(   1) C   8 - C   9          0.02686     0.58981   
   717. BD*(   2) C   8 - C   9          0.30895    -0.00010  726(v),700(r),246(g),722(v)
                                                    723(v),230(g),312(v),210(v)
   718. BD*(   1) C   8 - C  10          0.03594     0.35922   
   719. BD*(   1) C   9 - C  11          0.07908     0.44229   
   720. BD*(   1) C   9 -Cl  13          0.02792     0.14796   
   721. BD*(   1) C  10 - O  12          0.02802     0.24659   
   722. BD*(   1) C  10 - C  16          0.05367     0.31945   
   723. BD*(   1) C  10 - H  29          0.02736     0.37390   
   724. BD*(   1) C  11 - O  12          0.12315     0.30494  721(g),279(g),718(v),722(v)
                                                    720(v),716(v),305(g),284(g)
   725. BD*(   1) C  11 - O  14          0.01260     0.64295   
   726. BD*(   2) C  11 - O  14          0.28696     0.01209  717(v),280(g),334(g),347(g)
   727. BD*(   1) C  15 - H  36          0.00443     0.39039   
   728. BD*(   1) C  15 - H  37          0.01002     0.38577   
   729. BD*(   1) C  15 - H  38          0.00651     0.38829   
   730. BD*(   1) C  16 - C  17          0.03485     0.39323   
   731. BD*(   1) C  16 - O  18          0.03773     0.26655   
   732. BD*(   1) C  16 - H  30          0.02583     0.37225   
   733. BD*(   1) C  17 - S  19          0.03226     0.20757   
   734. BD*(   1) C  17 - C  22          0.02136     0.59811   
   735. BD*(   2) C  17 - C  22          0.30643     0.01485  739(v),731(v),475(g),385(g)
                                                    722(v),419(v)
   736. BD*(   1) O  18 - H  39          0.00900     0.41840   
   737. BD*(   1) S  19 - C  20          0.01311     0.22082   
   738. BD*(   1) C  20 - C  21          0.02175     0.57626   
   739. BD*(   2) C  20 - C  21          0.32967     0.01579  735(v),746(v),440(g),458(g)
   740. BD*(   1) C  20 - H  40          0.01332     0.43186   
   741. BD*(   1) C  21 - C  22          0.02391     0.51694   
   742. BD*(   1) C  21 - C  23          0.03437     0.46250   
   743. BD*(   1) C  22 - H  41          0.01771     0.44436   
   744. BD*(   1) C  23 - C  24          0.02453     0.55363   
   745. BD*(   1) C  23 - C  28          0.02451     0.55385   
   746. BD*(   2) C  23 - C  28          0.36603     0.03383  748(v),753(v),739(v),576(g)
                                                    741(v)
   747. BD*(   1) C  24 - C  25          0.01492     0.58083   
   748. BD*(   2) C  24 - C  25          0.32245     0.03102  753(v),746(v),525(g),509(g)
                                                    508(g),758(r)
   749. BD*(   1) C  24 - H  42          0.01401     0.43962   
   750. BD*(   1) C  25 - C  26          0.01636     0.57785   
   751. BD*(   1) C  25 - H  43          0.01353     0.44238   
   752. BD*(   1) C  26 - C  27          0.01628     0.57766   
   753. BD*(   2) C  26 - C  27          0.33521     0.02906  748(v),746(v),758(r),542(g)
                                                    559(g),550(g)
   754. BD*(   1) C  26 - H  44          0.01365     0.44814   
   755. BD*(   1) C  27 - C  28          0.01488     0.75369   
   756. BD*(   1) C  27 - H  45          0.01347     0.51557   
   757. BD*(   1) C  28 - H  46          0.01376     2.75656   
       -------------------------------
              Total Lewis  209.08684  ( 97.7041%)
        Valence non-Lewis    4.48564  (  2.0961%)
        Rydberg non-Lewis    0.42751  (  0.1998%)
       -------------------------------
            Total unit  1  214.00000  (100.0000%)
           Charge unit  1    0.00000
 Leave Link  607 at Wed Jul 10 19:21:18 2019, MaxMem=   209715200 cpu:        32.0
 (Enter C:\G09W\l9999.exe)
 1|1|UNPC-CCSC-01038015|FOpt|RB3LYP|6-311++G(d,p)|C22H18Cl1N1O3S1|PERFI
 L|10-Jul-2019|0||#p opt b3lyp/6-311++g(d,p) pop=nbo geom=connectivity|
 |9w.log||0,1|C,-2.9176361913,-1.4790990896,-1.3850557468|C,-3.47837276
 82,-0.868936755,-0.2611269981|C,-4.1637430917,-1.6557379674,0.66990427
 52|C,-4.2715804599,-3.0286143795,0.480056231|C,-3.6861753095,-3.660626
 6115,-0.623937152|C,-3.0111024731,-2.8593505977,-1.5488182362|N,-3.412
 9834468,0.5368390295,-0.063649932|C,-2.3436065206,1.3537082089,-0.2305
 673766|C,-2.3466720137,2.7067436667,-0.2523770352|C,-0.9004053237,0.89
 83401251,-0.3217292856|C,-0.9915303117,3.2229116666,-0.3737896052|O,-0
 .148644934,2.115462295,-0.4446155774|Cl,-3.738431158,3.7242487377,-0.1
 236290988|O,-0.5675261148,4.3418918671,-0.4214609475|C,-3.7709219291,-
 5.1571730981,-0.7966609489|C,-0.4207368818,0.1135680694,0.9260600795|C
 ,0.9718588983,-0.4392736726,0.7530395413|O,-0.5627249351,0.9017119692,
 2.1026437998|S,1.3652159184,-2.0021338218,1.422613293|C,3.0144711739,-
 1.8531181892,0.9377013689|C,3.2667916773,-0.6642370985,0.2963841758|C,
 2.081576731,0.1374957696,0.1960287067|C,4.5884719619,-0.2612441463,-0.
 2290692115|C,5.7731770874,-0.672590971,0.4005362179|C,7.0164869565,-0.
 3034767642,-0.1040321383|C,7.103713216,0.494033647,-1.244403129|C,5.93
 51061678,0.9180897447,-1.8745323003|C,4.6911899509,0.5438913865,-1.373
 4154046|H,-0.7107935803,0.2995351675,-1.214271793|H,-1.1139627366,-0.7
 191502978,1.0623927421|H,-2.4358310927,-0.8782946805,-2.1468679584|H,-
 4.6013012719,-1.1890338357,1.5457031099|H,-4.8102655289,-3.6209809983,
 1.2125101563|H,-2.567493729,-3.3153073384,-2.4276722782|H,-4.274260367
 6,0.999749668,0.1956587338|H,-3.5529692249,-5.4521061436,-1.8250284756
 |H,-3.0519279326,-5.6682150506,-0.1474662175|H,-4.7648518852,-5.532420
 2606,-0.5401600406|H,0.1261438192,1.5774896297,2.0968703344|H,3.699832
 362,-2.6664678708,1.1207364411|H,2.0623120254,1.121358212,-0.252165211
 9|H,5.7184141429,-1.2658396761,1.3063530219|H,7.9188171597,-0.62851388
 17,0.4020061346|H,8.0720376717,0.7862748454,-1.6343501438|H,5.99057192
 27,1.5389597695,-2.7617685695|H,3.7916463698,0.8678787216,-1.884085550
 9||Version=IA32W-G09RevD.01|State=1-A|HF=-1988.3399876|RMSD=3.788e-009
 |RMSF=2.540e-006|Dipole=-0.7005106,-2.7358848,-0.3165823|Quadrupole=15
 .5133262,-13.6125963,-1.9007299,7.0564492,-0.9887262,-0.2969994|PG=C01
  [X(C22H18Cl1N1O3S1)]||@


 ...THOSE SCIENCES ARE VAIN AND FULL OF ERRORS WHICH 
 ARE NOT BORN FROM EXPERIMENT, THE MOTHER OF CERTAINTY...

                          -- LEONARDO DA VINCI, 1452-1519
 Job cpu time:       0 days 14 hours 50 minutes 52.0 seconds.
 File lengths (MBytes):  RWF=    337 Int=      0 D2E=      0 Chk=     38 Scr=      1
 Normal termination of Gaussian 09 at Wed Jul 10 19:21:19 2019.
