 Entering Link 1 = C:\G09W\l1.exe PID=       412.
  
 Copyright (c) 1988,1990,1992,1993,1995,1998,2003,2009, Gaussian, Inc.
                  All Rights Reserved.
  
 This is part of the Gaussian(R) 09 program.  It is based on
 the Gaussian(R) 03 system (copyright 2003, Gaussian, Inc.),
 the Gaussian(R) 98 system (copyright 1998, Gaussian, Inc.),
 the Gaussian(R) 94 system (copyright 1995, Gaussian, Inc.),
 the Gaussian 92(TM) system (copyright 1992, Gaussian, Inc.),
 the Gaussian 90(TM) system (copyright 1990, Gaussian, Inc.),
 the Gaussian 88(TM) system (copyright 1988, Gaussian, Inc.),
 the Gaussian 86(TM) system (copyright 1986, Carnegie Mellon
 University), and the Gaussian 82(TM) system (copyright 1983,
 Carnegie Mellon University). Gaussian is a federally registered
 trademark of Gaussian, Inc.
  
 This software contains proprietary and confidential information,
 including trade secrets, belonging to Gaussian, Inc.
  
 This software is provided under written license and may be
 used, copied, transmitted, or stored only in accord with that
 written license.
  
 The following legend is applicable only to US Government
 contracts under FAR:
  
                    RESTRICTED RIGHTS LEGEND
  
 Use, reproduction and disclosure by the US Government is
 subject to restrictions as set forth in subparagraphs (a)
 and (c) of the Commercial Computer Software - Restricted
 Rights clause in FAR 52.227-19.
  
 Gaussian, Inc.
 340 Quinnipiac St., Bldg. 40, Wallingford CT 06492
  
  
 ---------------------------------------------------------------
 Warning -- This program may not be used in any manner that
 competes with the business of Gaussian, Inc. or will provide
 assistance to any competitor of Gaussian, Inc.  The licensee
 of this program is prohibited from giving any competitor of
 Gaussian, Inc. access to this program.  By using this program,
 the user acknowledges that Gaussian, Inc. is engaged in the
 business of creating and licensing software in the field of
 computational chemistry and represents and warrants to the
 licensee that it is not a competitor of Gaussian, Inc. and that
 it will not use this program in any manner prohibited above.
 ---------------------------------------------------------------
  

 Cite this work as:
 Gaussian 09, Revision A.02,
 M. J. Frisch, G. W. Trucks, H. B. Schlegel, G. E. Scuseria, 
 M. A. Robb, J. R. Cheeseman, G. Scalmani, V. Barone, B. Mennucci, 
 G. A. Petersson, H. Nakatsuji, M. Caricato, X. Li, H. P. Hratchian, 
 A. F. Izmaylov, J. Bloino, G. Zheng, J. L. Sonnenberg, M. Hada, 
 M. Ehara, K. Toyota, R. Fukuda, J. Hasegawa, M. Ishida, T. Nakajima, 
 Y. Honda, O. Kitao, H. Nakai, T. Vreven, J. A. Montgomery, Jr., 
 J. E. Peralta, F. Ogliaro, M. Bearpark, J. J. Heyd, E. Brothers, 
 K. N. Kudin, V. N. Staroverov, R. Kobayashi, J. Normand, 
 K. Raghavachari, A. Rendell, J. C. Burant, S. S. Iyengar, J. Tomasi, 
 M. Cossi, N. Rega, J. M. Millam, M. Klene, J. E. Knox, J. B. Cross, 
 V. Bakken, C. Adamo, J. Jaramillo, R. Gomperts, R. E. Stratmann, 
 O. Yazyev, A. J. Austin, R. Cammi, C. Pomelli, J. W. Ochterski, 
 R. L. Martin, K. Morokuma, V. G. Zakrzewski, G. A. Voth, 
 P. Salvador, J. J. Dannenberg, S. Dapprich, A. D. Daniels, 
 O. Farkas, J. B. Foresman, J. V. Ortiz, J. Cioslowski, 
 and D. J. Fox, Gaussian, Inc., Wallingford CT, 2009.
 
 ******************************************
 Gaussian 09:  IA32W-G09RevA.02 11-Jun-2009
                09-Jul-2019 
 ******************************************
 %nprocshared=4
 Will use up to    4 processors via shared memory.
 %mem=1600MB
 ----------------------------------------------------
 #p opt b3lyp/6-311++g(d,p) pop=nbo geom=connectivity
 ----------------------------------------------------
 1/14=-1,18=20,19=15,26=3,38=1,57=2/1,3;
 2/9=110,12=2,17=6,18=5,40=1/2;
 3/5=4,6=6,7=1111,11=2,16=1,25=1,30=1,71=1,74=-5/1,2,3;
 4//1;
 5/5=2,38=5/2;
 6/7=2,8=2,9=2,10=2,28=1/1,7;
 7//1,2,3,16;
 1/14=-1,18=20,19=15/3(2);
 2/9=110/2;
 99//99;
 2/9=110/2;
 3/5=4,6=6,7=1111,11=2,16=1,25=1,30=1,71=1,74=-5/1,2,3;
 4/5=5,16=3/1;
 5/5=2,38=5/2;
 7//1,2,3,16;
 1/14=-1,18=20,19=15/3(-5);
 2/9=110/2;
 6/7=2,8=2,9=2,10=2,19=2,28=1/1,7;
 99/9=1/99;
 Leave Link    1 at Tue Jul 09 16:58:45 2019, MaxMem=  209715200 cpu:       0.0
 (Enter C:\G09W\l101.exe)
 ------
 9x.log
 ------
 Symbolic Z-matrix:
 Charge =  0 Multiplicity = 1
 C                     1.08289   2.52876  -1.11846 
 C                     1.3249    2.11873   0.18202 
 C                     0.73444   2.80554   1.23369 
 C                    -0.0928    3.88307   0.97982 
 C                    -0.36398   4.29262  -0.32282 
 C                     0.23592   3.59824  -1.36407 
 N                     2.2027    1.03136   0.46144 
 C                     2.06462  -0.23269   0.01767 
 C                     2.98374  -1.20029  -0.02032 
 C                     0.76422  -0.81831  -0.49487 
 C                     2.39461  -2.42901  -0.53536 
 O                     1.09901  -2.14885  -0.82562 
 Cl                    4.62803  -1.08071   0.46291 
 O                     2.86355  -3.49659  -0.70943 
 C                    -1.29884   5.44873  -0.58757 
 C                    -0.3617   -0.82831   0.54574 
 C                    -1.6416   -1.36138  -0.03041 
 O                     0.03238  -1.51341   1.69565 
 O                    -2.77354  -0.88263   0.54414 
 C                    -3.79842  -1.48511  -0.05547 
 C                    -3.39326  -2.33814  -1.00108 
 C                    -1.95571  -2.25445  -0.98095 
 Cl                   -5.3581   -1.05241   0.4827 
 H                     0.43144  -0.31252  -1.3916 
 H                    -0.54872   0.19041   0.85457 
 H                     1.56582   2.02475  -1.93714 
 H                     0.92297   2.48709   2.24337 
 H                    -0.54153   4.40635   1.80629 
 H                     0.05562   3.90061  -2.38076 
 H                     3.09443   1.25844   0.84298 
 H                    -1.18086   5.82739  -1.59592 
 H                    -2.3343    5.14297  -0.46701 
 H                    -1.11599   6.26589   0.10176 
 H                     0.07768  -2.43951   1.51208 
 H                    -4.01242  -2.94435  -1.62694 
 H                    -1.26729  -2.80026  -1.59051 
 
 NAtoms=     36 NQM=     36 NQMF=      0 NMic=      0 NMicF=      0 NTot=     36.
                    Isotopes and Nuclear Properties:
 (Nuclear quadrupole moments (NQMom) in fm**2, nuclear magnetic moments (NMagM)
  in nuclear magnetons)

  Atom         1           2           3           4           5           6           7           8           9          10
 IAtWgt=          12          12          12          12          12          12          14          12          12          12
 AtmWgt=  12.0000000  12.0000000  12.0000000  12.0000000  12.0000000  12.0000000  14.0030740  12.0000000  12.0000000  12.0000000
 NucSpn=           0           0           0           0           0           0           2           0           0           0
 AtZEff=   0.0000000   0.0000000   0.0000000   0.0000000   0.0000000   0.0000000   0.0000000   0.0000000   0.0000000   0.0000000
 NQMom=    0.0000000   0.0000000   0.0000000   0.0000000   0.0000000   0.0000000   2.0440000   0.0000000   0.0000000   0.0000000
 NMagM=    0.0000000   0.0000000   0.0000000   0.0000000   0.0000000   0.0000000   0.4037610   0.0000000   0.0000000   0.0000000

  Atom        11          12          13          14          15          16          17          18          19          20
 IAtWgt=          12          16          35          16          12          12          12          16          16          12
 AtmWgt=  12.0000000  15.9949146  34.9688527  15.9949146  12.0000000  12.0000000  12.0000000  15.9949146  15.9949146  12.0000000
 NucSpn=           0           0           3           0           0           0           0           0           0           0
 AtZEff=   0.0000000   0.0000000   0.0000000   0.0000000   0.0000000   0.0000000   0.0000000   0.0000000   0.0000000   0.0000000
 NQMom=    0.0000000   0.0000000  -8.1650000   0.0000000   0.0000000   0.0000000   0.0000000   0.0000000   0.0000000   0.0000000
 NMagM=    0.0000000   0.0000000   0.8218740   0.0000000   0.0000000   0.0000000   0.0000000   0.0000000   0.0000000   0.0000000

  Atom        21          22          23          24          25          26          27          28          29          30
 IAtWgt=          12          12          35           1           1           1           1           1           1           1
 AtmWgt=  12.0000000  12.0000000  34.9688527   1.0078250   1.0078250   1.0078250   1.0078250   1.0078250   1.0078250   1.0078250
 NucSpn=           0           0           3           1           1           1           1           1           1           1
 AtZEff=   0.0000000   0.0000000   0.0000000   0.0000000   0.0000000   0.0000000   0.0000000   0.0000000   0.0000000   0.0000000
 NQMom=    0.0000000   0.0000000  -8.1650000   0.0000000   0.0000000   0.0000000   0.0000000   0.0000000   0.0000000   0.0000000
 NMagM=    0.0000000   0.0000000   0.8218740   2.7928460   2.7928460   2.7928460   2.7928460   2.7928460   2.7928460   2.7928460

  Atom        31          32          33          34          35          36
 IAtWgt=           1           1           1           1           1           1
 AtmWgt=   1.0078250   1.0078250   1.0078250   1.0078250   1.0078250   1.0078250
 NucSpn=           1           1           1           1           1           1
 AtZEff=   0.0000000   0.0000000   0.0000000   0.0000000   0.0000000   0.0000000
 NQMom=    0.0000000   0.0000000   0.0000000   0.0000000   0.0000000   0.0000000
 NMagM=    2.7928460   2.7928460   2.7928460   2.7928460   2.7928460   2.7928460
 Leave Link  101 at Tue Jul 09 16:58:45 2019, MaxMem=  209715200 cpu:       0.0
 (Enter C:\G09W\l103.exe)

 GradGradGradGradGradGradGradGradGradGradGradGradGradGradGradGradGradGrad
 Berny optimization.
 Initialization pass.
                           ----------------------------
                           !    Initial Parameters    !
                           ! (Angstroms and Degrees)  !
 --------------------------                            --------------------------
 ! Name  Definition              Value          Derivative Info.                !
 --------------------------------------------------------------------------------
 ! R1    R(1,2)                  1.3849         estimate D2E/DX2                !
 ! R2    R(1,6)                  1.3862         estimate D2E/DX2                !
 ! R3    R(1,26)                 1.0759         estimate D2E/DX2                !
 ! R4    R(2,3)                  1.3879         estimate D2E/DX2                !
 ! R5    R(2,7)                  1.4251         estimate D2E/DX2                !
 ! R6    R(3,4)                  1.382          estimate D2E/DX2                !
 ! R7    R(3,27)                 1.0754         estimate D2E/DX2                !
 ! R8    R(4,5)                  1.3922         estimate D2E/DX2                !
 ! R9    R(4,28)                 1.0762         estimate D2E/DX2                !
 ! R10   R(5,6)                  1.3879         estimate D2E/DX2                !
 ! R11   R(5,15)                 1.5102         estimate D2E/DX2                !
 ! R12   R(6,29)                 1.0759         estimate D2E/DX2                !
 ! R13   R(7,8)                  1.3468         estimate D2E/DX2                !
 ! R14   R(7,30)                 0.9961         estimate D2E/DX2                !
 ! R15   R(8,9)                  1.3351         estimate D2E/DX2                !
 ! R16   R(8,10)                 1.5155         estimate D2E/DX2                !
 ! R17   R(9,11)                 1.4567         estimate D2E/DX2                !
 ! R18   R(9,13)                 1.718          estimate D2E/DX2                !
 ! R19   R(10,12)                1.4113         estimate D2E/DX2                !
 ! R20   R(10,16)                1.5332         estimate D2E/DX2                !
 ! R21   R(10,24)                1.082          estimate D2E/DX2                !
 ! R22   R(11,12)                1.3569         estimate D2E/DX2                !
 ! R23   R(11,14)                1.179          estimate D2E/DX2                !
 ! R24   R(15,31)                1.0835         estimate D2E/DX2                !
 ! R25   R(15,32)                1.0864         estimate D2E/DX2                !
 ! R26   R(15,33)                1.0846         estimate D2E/DX2                !
 ! R27   R(16,17)                1.5014         estimate D2E/DX2                !
 ! R28   R(16,18)                1.3953         estimate D2E/DX2                !
 ! R29   R(16,25)                1.0808         estimate D2E/DX2                !
 ! R30   R(17,19)                1.3567         estimate D2E/DX2                !
 ! R31   R(17,22)                1.3416         estimate D2E/DX2                !
 ! R32   R(18,34)                0.9452         estimate D2E/DX2                !
 ! R33   R(19,20)                1.3315         estimate D2E/DX2                !
 ! R34   R(20,21)                1.3364         estimate D2E/DX2                !
 ! R35   R(20,23)                1.7057         estimate D2E/DX2                !
 ! R36   R(21,22)                1.4401         estimate D2E/DX2                !
 ! R37   R(21,35)                1.0689         estimate D2E/DX2                !
 ! R38   R(22,36)                1.0693         estimate D2E/DX2                !
 ! A1    A(2,1,6)              120.1052         estimate D2E/DX2                !
 ! A2    A(2,1,26)             119.83           estimate D2E/DX2                !
 ! A3    A(6,1,26)             120.0582         estimate D2E/DX2                !
 ! A4    A(1,2,3)              119.3853         estimate D2E/DX2                !
 ! A5    A(1,2,7)              121.1747         estimate D2E/DX2                !
 ! A6    A(3,2,7)              119.4094         estimate D2E/DX2                !
 ! A7    A(2,3,4)              120.0861         estimate D2E/DX2                !
 ! A8    A(2,3,27)             119.3611         estimate D2E/DX2                !
 ! A9    A(4,3,27)             120.5518         estimate D2E/DX2                !
 ! A10   A(3,4,5)              121.1886         estimate D2E/DX2                !
 ! A11   A(3,4,28)             119.1845         estimate D2E/DX2                !
 ! A12   A(5,4,28)             119.624          estimate D2E/DX2                !
 ! A13   A(4,5,6)              118.0739         estimate D2E/DX2                !
 ! A14   A(4,5,15)             120.6522         estimate D2E/DX2                !
 ! A15   A(6,5,15)             121.2693         estimate D2E/DX2                !
 ! A16   A(1,6,5)              121.1435         estimate D2E/DX2                !
 ! A17   A(1,6,29)             119.1212         estimate D2E/DX2                !
 ! A18   A(5,6,29)             119.7287         estimate D2E/DX2                !
 ! A19   A(2,7,8)              126.0415         estimate D2E/DX2                !
 ! A20   A(2,7,30)             116.9071         estimate D2E/DX2                !
 ! A21   A(8,7,30)             115.5907         estimate D2E/DX2                !
 ! A22   A(7,8,9)              128.244          estimate D2E/DX2                !
 ! A23   A(7,8,10)             124.2014         estimate D2E/DX2                !
 ! A24   A(9,8,10)             107.5206         estimate D2E/DX2                !
 ! A25   A(8,9,11)             110.0561         estimate D2E/DX2                !
 ! A26   A(8,9,13)             126.9025         estimate D2E/DX2                !
 ! A27   A(11,9,13)            123.0399         estimate D2E/DX2                !
 ! A28   A(8,10,12)            103.8877         estimate D2E/DX2                !
 ! A29   A(8,10,16)            113.7731         estimate D2E/DX2                !
 ! A30   A(8,10,24)            111.32           estimate D2E/DX2                !
 ! A31   A(12,10,16)           109.0936         estimate D2E/DX2                !
 ! A32   A(12,10,24)           108.6288         estimate D2E/DX2                !
 ! A33   A(16,10,24)           109.8585         estimate D2E/DX2                !
 ! A34   A(9,11,12)            106.7156         estimate D2E/DX2                !
 ! A35   A(9,11,14)            130.9293         estimate D2E/DX2                !
 ! A36   A(12,11,14)           122.3541         estimate D2E/DX2                !
 ! A37   A(10,12,11)           111.7774         estimate D2E/DX2                !
 ! A38   A(5,15,31)            111.3011         estimate D2E/DX2                !
 ! A39   A(5,15,32)            110.7997         estimate D2E/DX2                !
 ! A40   A(5,15,33)            111.1612         estimate D2E/DX2                !
 ! A41   A(31,15,32)           107.7832         estimate D2E/DX2                !
 ! A42   A(31,15,33)           108.0473         estimate D2E/DX2                !
 ! A43   A(32,15,33)           107.5906         estimate D2E/DX2                !
 ! A44   A(10,16,17)           111.5852         estimate D2E/DX2                !
 ! A45   A(10,16,18)           110.8023         estimate D2E/DX2                !
 ! A46   A(10,16,25)           108.3525         estimate D2E/DX2                !
 ! A47   A(17,16,18)           112.4996         estimate D2E/DX2                !
 ! A48   A(17,16,25)           107.2645         estimate D2E/DX2                !
 ! A49   A(18,16,25)           106.0322         estimate D2E/DX2                !
 ! A50   A(16,17,19)           115.0526         estimate D2E/DX2                !
 ! A51   A(16,17,22)           135.0592         estimate D2E/DX2                !
 ! A52   A(19,17,22)           109.8536         estimate D2E/DX2                !
 ! A53   A(16,18,34)           109.5454         estimate D2E/DX2                !
 ! A54   A(17,19,20)           106.9676         estimate D2E/DX2                !
 ! A55   A(19,20,21)           111.9686         estimate D2E/DX2                !
 ! A56   A(19,20,23)           116.5485         estimate D2E/DX2                !
 ! A57   A(21,20,23)           131.482          estimate D2E/DX2                !
 ! A58   A(20,21,22)           104.8117         estimate D2E/DX2                !
 ! A59   A(20,21,35)           126.9189         estimate D2E/DX2                !
 ! A60   A(22,21,35)           128.2694         estimate D2E/DX2                !
 ! A61   A(17,22,21)           106.3984         estimate D2E/DX2                !
 ! A62   A(17,22,36)           126.3675         estimate D2E/DX2                !
 ! A63   A(21,22,36)           127.2305         estimate D2E/DX2                !
 ! D1    D(6,1,2,3)             -1.3385         estimate D2E/DX2                !
 ! D2    D(6,1,2,7)           -179.3169         estimate D2E/DX2                !
 ! D3    D(26,1,2,3)           177.7205         estimate D2E/DX2                !
 ! D4    D(26,1,2,7)            -0.2579         estimate D2E/DX2                !
 ! D5    D(2,1,6,5)              1.2113         estimate D2E/DX2                !
 ! D6    D(2,1,6,29)          -179.7259         estimate D2E/DX2                !
 ! D7    D(26,1,6,5)          -177.8455         estimate D2E/DX2                !
 ! D8    D(26,1,6,29)            1.2174         estimate D2E/DX2                !
 ! D9    D(1,2,3,4)              0.377          estimate D2E/DX2                !
 ! D10   D(1,2,3,27)          -179.9735         estimate D2E/DX2                !
 ! D11   D(7,2,3,4)            178.3915         estimate D2E/DX2                !
 ! D12   D(7,2,3,27)            -1.959          estimate D2E/DX2                !
 ! D13   D(1,2,7,8)            -59.2213         estimate D2E/DX2                !
 ! D14   D(1,2,7,30)           106.3161         estimate D2E/DX2                !
 ! D15   D(3,2,7,8)            122.8008         estimate D2E/DX2                !
 ! D16   D(3,2,7,30)           -71.6618         estimate D2E/DX2                !
 ! D17   D(2,3,4,5)              0.7422         estimate D2E/DX2                !
 ! D18   D(2,3,4,28)          -179.8823         estimate D2E/DX2                !
 ! D19   D(27,3,4,5)          -178.9031         estimate D2E/DX2                !
 ! D20   D(27,3,4,28)            0.4724         estimate D2E/DX2                !
 ! D21   D(3,4,5,6)             -0.8733         estimate D2E/DX2                !
 ! D22   D(3,4,5,15)           178.362          estimate D2E/DX2                !
 ! D23   D(28,4,5,6)           179.7539         estimate D2E/DX2                !
 ! D24   D(28,4,5,15)           -1.0107         estimate D2E/DX2                !
 ! D25   D(4,5,6,1)             -0.1029         estimate D2E/DX2                !
 ! D26   D(4,5,6,29)          -179.1601         estimate D2E/DX2                !
 ! D27   D(15,5,6,1)          -179.3333         estimate D2E/DX2                !
 ! D28   D(15,5,6,29)            1.6095         estimate D2E/DX2                !
 ! D29   D(4,5,15,31)          163.1621         estimate D2E/DX2                !
 ! D30   D(4,5,15,32)          -76.9189         estimate D2E/DX2                !
 ! D31   D(4,5,15,33)           42.6651         estimate D2E/DX2                !
 ! D32   D(6,5,15,31)          -17.6272         estimate D2E/DX2                !
 ! D33   D(6,5,15,32)          102.2917         estimate D2E/DX2                !
 ! D34   D(6,5,15,33)         -138.1242         estimate D2E/DX2                !
 ! D35   D(2,7,8,9)            162.977          estimate D2E/DX2                !
 ! D36   D(2,7,8,10)           -19.4161         estimate D2E/DX2                !
 ! D37   D(30,7,8,9)            -2.7268         estimate D2E/DX2                !
 ! D38   D(30,7,8,10)          174.8801         estimate D2E/DX2                !
 ! D39   D(7,8,9,11)           178.0699         estimate D2E/DX2                !
 ! D40   D(7,8,9,13)            -1.4915         estimate D2E/DX2                !
 ! D41   D(10,8,9,11)            0.1453         estimate D2E/DX2                !
 ! D42   D(10,8,9,13)         -179.4161         estimate D2E/DX2                !
 ! D43   D(7,8,10,12)         -179.3353         estimate D2E/DX2                !
 ! D44   D(7,8,10,16)          -60.8381         estimate D2E/DX2                !
 ! D45   D(7,8,10,24)           63.9387         estimate D2E/DX2                !
 ! D46   D(9,8,10,12)           -1.306          estimate D2E/DX2                !
 ! D47   D(9,8,10,16)          117.1911         estimate D2E/DX2                !
 ! D48   D(9,8,10,24)         -118.0321         estimate D2E/DX2                !
 ! D49   D(8,9,11,12)            1.133          estimate D2E/DX2                !
 ! D50   D(8,9,11,14)         -179.2377         estimate D2E/DX2                !
 ! D51   D(13,9,11,12)        -179.2854         estimate D2E/DX2                !
 ! D52   D(13,9,11,14)           0.3439         estimate D2E/DX2                !
 ! D53   D(8,10,12,11)           2.0828         estimate D2E/DX2                !
 ! D54   D(16,10,12,11)       -119.5865         estimate D2E/DX2                !
 ! D55   D(24,10,12,11)        120.6754         estimate D2E/DX2                !
 ! D56   D(8,10,16,17)         177.4909         estimate D2E/DX2                !
 ! D57   D(8,10,16,18)         -56.3138         estimate D2E/DX2                !
 ! D58   D(8,10,16,25)          59.6178         estimate D2E/DX2                !
 ! D59   D(12,10,16,17)        -67.0403         estimate D2E/DX2                !
 ! D60   D(12,10,16,18)         59.155          estimate D2E/DX2                !
 ! D61   D(12,10,16,25)        175.0867         estimate D2E/DX2                !
 ! D62   D(24,10,16,17)         51.9347         estimate D2E/DX2                !
 ! D63   D(24,10,16,18)        178.13           estimate D2E/DX2                !
 ! D64   D(24,10,16,25)        -65.9383         estimate D2E/DX2                !
 ! D65   D(9,11,12,10)          -2.0436         estimate D2E/DX2                !
 ! D66   D(14,11,12,10)        178.2879         estimate D2E/DX2                !
 ! D67   D(10,16,17,19)       -151.7519         estimate D2E/DX2                !
 ! D68   D(10,16,17,22)         30.6613         estimate D2E/DX2                !
 ! D69   D(18,16,17,19)         82.9896         estimate D2E/DX2                !
 ! D70   D(18,16,17,22)        -94.5972         estimate D2E/DX2                !
 ! D71   D(25,16,17,19)        -33.227          estimate D2E/DX2                !
 ! D72   D(25,16,17,22)        149.1862         estimate D2E/DX2                !
 ! D73   D(10,16,18,34)        -71.5067         estimate D2E/DX2                !
 ! D74   D(17,16,18,34)         54.1779         estimate D2E/DX2                !
 ! D75   D(25,16,18,34)        171.1308         estimate D2E/DX2                !
 ! D76   D(16,17,19,20)       -178.1575         estimate D2E/DX2                !
 ! D77   D(22,17,19,20)          0.0304         estimate D2E/DX2                !
 ! D78   D(16,17,22,21)        177.7167         estimate D2E/DX2                !
 ! D79   D(16,17,22,36)         -1.6305         estimate D2E/DX2                !
 ! D80   D(19,17,22,21)          0.0409         estimate D2E/DX2                !
 ! D81   D(19,17,22,36)       -179.3063         estimate D2E/DX2                !
 ! D82   D(17,19,20,21)         -0.0974         estimate D2E/DX2                !
 ! D83   D(17,19,20,23)       -179.7919         estimate D2E/DX2                !
 ! D84   D(19,20,21,22)          0.1195         estimate D2E/DX2                !
 ! D85   D(19,20,21,35)       -179.9503         estimate D2E/DX2                !
 ! D86   D(23,20,21,22)        179.7547         estimate D2E/DX2                !
 ! D87   D(23,20,21,35)         -0.3152         estimate D2E/DX2                !
 ! D88   D(20,21,22,17)         -0.0956         estimate D2E/DX2                !
 ! D89   D(20,21,22,36)        179.2442         estimate D2E/DX2                !
 ! D90   D(35,21,22,17)        179.9755         estimate D2E/DX2                !
 ! D91   D(35,21,22,36)         -0.6847         estimate D2E/DX2                !
 --------------------------------------------------------------------------------
 Trust Radius=3.00D-01 FncErr=1.00D-07 GrdErr=1.00D-06
 Number of steps in this run= 202 maximum allowed number of steps= 216.
 GradGradGradGradGradGradGradGradGradGradGradGradGradGradGradGradGradGrad

 Leave Link  103 at Tue Jul 09 16:58:45 2019, MaxMem=  209715200 cpu:       0.0
 (Enter C:\G09W\l202.exe)
                          Input orientation:                          
 ---------------------------------------------------------------------
 Center     Atomic      Atomic             Coordinates (Angstroms)
 Number     Number       Type             X           Y           Z
 ---------------------------------------------------------------------
      1          6           0        1.082887    2.528757   -1.118455
      2          6           0        1.324898    2.118732    0.182024
      3          6           0        0.734435    2.805542    1.233685
      4          6           0       -0.092798    3.883074    0.979822
      5          6           0       -0.363981    4.292620   -0.322817
      6          6           0        0.235923    3.598238   -1.364065
      7          7           0        2.202705    1.031364    0.461439
      8          6           0        2.064621   -0.232689    0.017670
      9          6           0        2.983744   -1.200285   -0.020315
     10          6           0        0.764224   -0.818307   -0.494872
     11          6           0        2.394609   -2.429006   -0.535363
     12          8           0        1.099010   -2.148854   -0.825621
     13         17           0        4.628029   -1.080712    0.462914
     14          8           0        2.863553   -3.496586   -0.709431
     15          6           0       -1.298843    5.448734   -0.587568
     16          6           0       -0.361697   -0.828311    0.545738
     17          6           0       -1.641601   -1.361375   -0.030413
     18          8           0        0.032381   -1.513412    1.695651
     19          8           0       -2.773544   -0.882630    0.544136
     20          6           0       -3.798424   -1.485109   -0.055466
     21          6           0       -3.393259   -2.338144   -1.001083
     22          6           0       -1.955712   -2.254453   -0.980947
     23         17           0       -5.358097   -1.052409    0.482700
     24          1           0        0.431442   -0.312524   -1.391601
     25          1           0       -0.548720    0.190410    0.854568
     26          1           0        1.565824    2.024752   -1.937138
     27          1           0        0.922965    2.487089    2.243369
     28          1           0       -0.541529    4.406346    1.806294
     29          1           0        0.055615    3.900612   -2.380761
     30          1           0        3.094432    1.258444    0.842975
     31          1           0       -1.180861    5.827393   -1.595919
     32          1           0       -2.334296    5.142967   -0.467006
     33          1           0       -1.115991    6.265890    0.101755
     34          1           0        0.077678   -2.439508    1.512084
     35          1           0       -4.012417   -2.944348   -1.626941
     36          1           0       -1.267288   -2.800260   -1.590513
 ---------------------------------------------------------------------
                    Distance matrix (angstroms):
                    1          2          3          4          5
     1  C    0.000000
     2  C    1.384895   0.000000
     3  C    2.393865   1.387928   0.000000
     4  C    2.760286   2.399843   1.381968   0.000000
     5  C    2.416129   2.798744   2.416737   1.392170   0.000000
     6  C    1.386168   2.401082   2.761374   2.383903   1.387894
     7  N    2.447906   1.425127   2.428969   3.697338   4.223592
     8  C    3.143273   2.470503   3.532554   4.745492   5.147083
     9  C    4.327230   3.715990   4.762201   6.025440   6.439781
    10  C    3.419538   3.065737   4.015106   5.001219   5.236795
    11  C    5.161398   4.726610   5.769419   6.951642   7.268786
    12  O    4.686796   4.390748   5.377704   6.408134   6.624631
    13  Cl   5.300663   4.607170   5.554920   6.869685   7.376329
    14  O    6.296255   5.890157   6.930055   8.127298   8.440271
    15  C    3.805357   4.308736   3.799690   2.522409   1.510185
    16  C    4.015752   3.414960   3.857417   4.738975   5.194067
    17  C    4.872350   4.577815   4.960513   5.560900   5.803919
    18  O    5.036059   4.141755   4.399961   5.445194   6.159653
    19  O    5.410530   5.092792   5.136536   5.485267   5.774150
    20  C    6.408452   6.268373   6.373257   6.604610   6.726740
    21  C    6.613349   6.597309   6.963444   7.315776   7.321448
    22  C    5.668429   5.589244   6.143699   6.707034   6.769853
    23  Cl   7.541533   7.403308   7.250290   7.233913   7.359306
    24  H    2.927775   3.030770   4.087330   4.847836   4.793991
    25  H    3.467395   2.771495   2.937538   3.722811   4.271825
    26  H    1.075868   2.134883   3.369712   3.835758   3.387241
    27  H    3.365884   2.132224   1.075369   2.139416   3.391384
    28  H    3.836434   3.369715   2.125685   1.076211   2.139526
    29  H    2.128542   3.369576   3.837212   3.363904   2.136554
    30  H    3.083377   2.075621   2.848816   4.131083   4.746147
    31  H    4.029085   4.816023   4.561425   3.405686   2.154904
    32  H    4.351508   4.791340   4.215805   2.950416   2.150819
    33  H    4.504458   4.812827   4.084036   2.737834   2.153967
    34  H    5.710853   4.909396   5.293334   6.347236   6.991672
    35  H    7.495036   7.575887   7.986052   8.292908   8.208869
    36  H    5.843337   5.835906   6.588475   7.256239   7.261678
                    6          7          8          9         10
     6  C    0.000000
     7  N    3.713427   0.000000
     8  C    4.464228   1.346784   0.000000
     9  C    5.690519   2.412958   1.335092   0.000000
    10  C    4.532159   2.530818   1.515480   2.301604   0.000000
    11  C    6.455567   3.606189   2.288787   1.456746   2.292192
    12  O    5.836429   3.603950   2.305479   2.258434   1.411323
    13  Cl   6.672407   3.216063   2.736502   1.717988   3.989386
    14  O    7.594045   4.723345   3.438021   2.400484   3.409750
    15  C    2.526418   5.733621   6.630066   7.929173   6.598533
    16  C    4.857863   3.168857   2.553554   3.413320   1.533189
    17  C    5.468225   4.554757   3.874574   4.628160   2.509709
    18  O    5.960894   3.565034   2.930166   3.428284   2.411878
    19  O    5.725059   5.332285   4.909932   5.793606   3.687747
    20  C    6.620333   6.527892   5.995765   6.788237   4.632004
    21  C    6.967306   6.693831   5.937950   6.551549   4.455426
    22  C    6.261313   5.492677   4.609538   5.141236   3.113974
    23  Cl   7.505473   7.842722   7.482308   8.358301   6.204294
    24  H    3.915743   2.894333   2.158632   3.030312   1.081981
    25  H    4.141411   2.903807   2.776502   3.895864   2.135959
    26  H    2.138436   2.673127   3.027559   4.010682   3.287199
    27  H    3.836699   2.632897   3.695173   4.792474   4.295207
    28  H    3.362833   4.553016   5.613541   6.870106   5.856394
    29  H    1.075924   4.573913   5.183894   6.337570   5.130975
    30  H    4.303108   0.996149   1.991260   2.608231   3.395968
    31  H    2.651446   6.219577   7.061262   8.319538   7.011490
    32  H    3.130005   6.192872   6.962978   8.289628   6.718511
    33  H    3.330566   6.208331   7.235668   8.518597   7.353708
    34  H    6.689668   4.203159   3.324344   3.511288   2.669740
    35  H    7.805314   7.667813   6.854796   7.387102   5.349573
    36  H    6.576602   5.561717   4.503364   4.805904   3.042303
                   11         12         13         14         15
    11  C    0.000000
    12  O    1.356949   0.000000
    13  Cl   2.793317   3.905794   0.000000
    14  O    1.178955   2.223397   3.213132   0.000000
    15  C    8.700753   7.970553   8.880596   9.867074   0.000000
    16  C    3.365743   2.399609   4.996792   4.370055   6.447009
    17  C    4.205449   2.960309   6.295268   5.031561   6.841454
    18  O    3.375775   2.810391   4.777745   4.211049   7.446927
    19  O    5.501491   4.298399   7.404669   6.338853   6.598611
    20  C    6.282905   5.001855   8.452063   6.989682   7.389805
    21  C    5.807286   4.499678   8.250181   6.369831   8.074221
    22  C    4.376563   3.060491   6.841641   4.984168   7.741144
    23  Cl   7.939516   6.678932   9.986186   8.659717   7.738726
    24  H    3.011090   2.034229   4.651955   4.064329   6.068974
    25  H    4.178090   3.318163   5.344892   5.261524   5.503854
    26  H    4.742132   4.344234   4.978078   5.803149   4.663830
    27  H    5.835673   5.562523   5.443044   6.949049   4.660684
    28  H    7.799122   7.251827   7.657467   8.965478   2.718579
    29  H    6.995745   6.332707   7.335329   8.086804   2.728879
    30  H    3.998357   4.286677   2.822768   5.007353   6.237455
    31  H    9.059630   8.331368   9.257641  10.201947   1.083547
    32  H    8.927597   8.067642   9.384716  10.085548   1.086366
    33  H    9.398481   8.750667   9.332565  10.573586   1.084594
    34  H    3.091977   2.567579   4.863412   3.716671   8.278147
    35  H    6.519747   5.234655   9.082838   6.958862   8.881869
    36  H    3.828924   2.570750   6.475197   4.280774   8.309801
                   16         17         18         19         20
    16  C    0.000000
    17  C    1.501420   0.000000
    18  O    1.395335   2.409280   0.000000
    19  O    2.412459   1.356687   3.097917   0.000000
    20  C    3.550200   2.160515   4.212158   1.331496   0.000000
    21  C    3.723254   2.228135   4.437067   2.211395   1.336420
    22  C    2.627838   1.341555   3.415528   2.208308   2.200907
    23  Cl   5.001820   3.764450   5.544459   2.590852   1.705706
    24  H    2.156012   2.692662   3.336541   3.787352   4.588244
    25  H    1.080808   2.094186   1.986985   2.489503   3.767771
    26  H    4.244995   5.038753   5.297849   5.782707   6.680941
    27  H    3.940074   5.153422   4.134869   5.282668   6.584414
    28  H    5.387298   6.152256   5.948542   5.877772   6.984465
    29  H    5.576850   6.007760   6.777118   6.280013   7.019017
    30  H    4.048175   5.482360   4.217392   6.253531   7.473001
    31  H    7.039611   7.371667   8.135958   7.220864   7.918164
    32  H    6.369691   6.555677   7.388209   6.125616   6.800326
    33  H    7.147990   7.646496   8.023516   7.351498   8.203545
    34  H    1.929464   2.549037   0.945200   3.389729   4.288619
    35  H    4.746146   3.267334   5.426563   3.240226   2.155158
    36  H    3.045036   2.155090   3.760850   3.240808   3.239235
                   21         22         23         24         25
    21  C    0.000000
    22  C    1.440122   0.000000
    23  Cl   2.777646   3.894021   0.000000
    24  H    4.345570   3.104550   6.130187   0.000000
    25  H    4.234197   3.365427   4.981264   2.501786   0.000000
    26  H    6.671099   5.623799   7.953944   2.654674   3.953445
    27  H    7.241487   6.416012   7.421573   4.614373   3.060941
    28  H    7.842313   7.357640   7.399273   5.782814   4.322031
    29  H    7.260876   6.624933   7.876554   4.343984   4.959655
    30  H    7.643699   6.416470   8.770125   3.814811   3.796497
    31  H    8.480833   8.142163   8.312739   6.351366   6.179002
    32  H    7.574540   7.424910   6.959023   6.185997   5.427952
    33  H    8.968367   8.629810   8.467472   6.920996   6.148169
    34  H    4.286454   3.222441   5.703624   3.616711   2.782296
    35  H    1.068896   2.263471   3.137017   5.170084   5.289782
    36  H    2.254048   1.069301   4.907944   3.018953   3.929233
                   26         27         28         29         30
    26  H    0.000000
    27  H    4.254840   0.000000
    28  H    4.911844   2.453431   0.000000
    29  H    2.448751   4.912527   4.259551   0.000000
    30  H    3.263878   2.861108   4.904843   5.158288   0.000000
    31  H    4.703274   5.506709   3.742081   2.420193   6.715775
    32  H    5.205333   5.000957   2.987393   3.304176   6.802695
    33  H    5.416315   4.798249   2.587154   3.623546   6.584192
    34  H    5.834495   5.051796   6.880094   7.439882   4.819062
    35  H    7.476961   8.296855   8.824221   7.998163   8.618077
    36  H    5.606016   6.888535   8.000012   6.875773   6.435802
                   31         32         33         34         35
    31  H    0.000000
    32  H    1.753082   0.000000
    33  H    1.754590   1.751774   0.000000
    34  H    8.921057   8.199289   8.899316   0.000000
    35  H    9.217489   8.340636   9.808474   5.180465   0.000000
    36  H    8.628088   8.092937   9.223976   3.400762   2.749149
                   36
    36  H    0.000000
 Stoichiometry    C16H13Cl2NO4
 Framework group  C1[X(C16H13Cl2NO4)]
 Deg. of freedom   102
 Full point group                 C1      NOp   1
 Largest Abelian subgroup         C1      NOp   1
 Largest concise Abelian subgroup C1      NOp   1
                         Standard orientation:                         
 ---------------------------------------------------------------------
 Center     Atomic      Atomic             Coordinates (Angstroms)
 Number     Number       Type             X           Y           Z
 ---------------------------------------------------------------------
      1          6           0        1.082887    2.528757   -1.118455
      2          6           0        1.324898    2.118732    0.182024
      3          6           0        0.734435    2.805542    1.233685
      4          6           0       -0.092798    3.883074    0.979822
      5          6           0       -0.363981    4.292620   -0.322817
      6          6           0        0.235923    3.598238   -1.364065
      7          7           0        2.202705    1.031364    0.461439
      8          6           0        2.064621   -0.232689    0.017670
      9          6           0        2.983744   -1.200285   -0.020315
     10          6           0        0.764224   -0.818307   -0.494872
     11          6           0        2.394609   -2.429006   -0.535363
     12          8           0        1.099010   -2.148854   -0.825621
     13         17           0        4.628029   -1.080712    0.462914
     14          8           0        2.863553   -3.496586   -0.709431
     15          6           0       -1.298842    5.448734   -0.587568
     16          6           0       -0.361697   -0.828311    0.545738
     17          6           0       -1.641601   -1.361375   -0.030413
     18          8           0        0.032381   -1.513412    1.695651
     19          8           0       -2.773544   -0.882630    0.544136
     20          6           0       -3.798424   -1.485109   -0.055466
     21          6           0       -3.393259   -2.338144   -1.001083
     22          6           0       -1.955712   -2.254453   -0.980947
     23         17           0       -5.358097   -1.052409    0.482700
     24          1           0        0.431442   -0.312524   -1.391601
     25          1           0       -0.548720    0.190410    0.854568
     26          1           0        1.565824    2.024752   -1.937138
     27          1           0        0.922965    2.487089    2.243369
     28          1           0       -0.541529    4.406346    1.806294
     29          1           0        0.055615    3.900612   -2.380761
     30          1           0        3.094432    1.258444    0.842975
     31          1           0       -1.180860    5.827393   -1.595919
     32          1           0       -2.334295    5.142967   -0.467006
     33          1           0       -1.115990    6.265890    0.101755
     34          1           0        0.077678   -2.439508    1.512084
     35          1           0       -4.012417   -2.944348   -1.626941
     36          1           0       -1.267288   -2.800260   -1.590513
 ---------------------------------------------------------------------
 Rotational constants (GHZ):      0.2269726      0.1657207      0.1047708
 Leave Link  202 at Tue Jul 09 16:58:45 2019, MaxMem=  209715200 cpu:       0.0
 (Enter C:\G09W\l301.exe)
 Standard basis: 6-311++G(d,p) (5D, 7F)
 Ernie: Thresh=  0.10000D-02 Tol=  0.10000D-05 Strict=F.
 There are   613 symmetry adapted basis functions of A   symmetry.
 Integral buffers will be    262144 words long.
 Raffenetti 2 integral format.
 Two-electron integral symmetry is turned on.
   613 basis functions,   979 primitive gaussians,   636 cartesian basis functions
    91 alpha electrons       91 beta electrons
       nuclear repulsion energy      2168.6359417062 Hartrees.
 IExCor=  402 DFT=T Ex+Corr=B3LYP ExCW=0 ScaHFX=  0.200000
 ScaDFX=  0.800000  0.720000  1.000000  0.810000 ScalE2=  1.000000  1.000000
 IRadAn=      0 IRanWt=     -1 IRanGd=            0 ICorTp=0
 NAtoms=   36 NActive=   36 NUniq=   36 SFac= 7.50D-01 NAtFMM=   80 NAOKFM=F Big=F
 Leave Link  301 at Tue Jul 09 16:58:45 2019, MaxMem=  209715200 cpu:       0.0
 (Enter C:\G09W\l302.exe)
 NPDir=0 NMtPBC=     1 NCelOv=     1 NCel=       1 NClECP=     1 NCelD=      1
         NCelK=      1 NCelE2=     1 NClLst=     1 CellRange=     0.0.
 One-electron integrals computed using PRISM.
 NBasis=   613 RedAO= T  NBF=   613
 NBsUse=   610 1.00D-06 NBFU=   610
 Precomputing XC quadrature grid using
 IXCGrd= 2 IRadAn=           0 IRanWt=          -1 IRanGd=           0 AccXCQ= 1.00D-10.
 NRdTot=    2354 NPtTot=      300098 NUsed=      311063 NTot=      311079
 NSgBfM=   619   619   619   620   620 NAtAll=    36    36.
 Leave Link  302 at Tue Jul 09 16:58:48 2019, MaxMem=  209715200 cpu:       3.0
 (Enter C:\G09W\l303.exe)
 DipDrv:  MaxL=1.
 Leave Link  303 at Tue Jul 09 16:58:48 2019, MaxMem=  209715200 cpu:       0.0
 (Enter C:\G09W\l401.exe)
 Harris functional with IExCor=  402 diagonalized for initial guess.
 ExpMin= 3.60D-02 ExpMax= 1.06D+05 ExpMxC= 3.62D+03 IAcc=3 IRadAn=         0 AccDes= 0.00D+00
 HarFok:  IExCor=  402 AccDes= 0.00D+00 IRadAn=         0 IDoV= 1
 ScaDFX=  1.000000  1.000000  1.000000  1.000000
 FoFCou: FMM=F IPFlag=           0 FMFlag=      100000 FMFlg1=           0
         NFxFlg=           0 DoJE=T BraDBF=F KetDBF=T FulRan=T
         Omega=  0.000000  0.000000  1.000000  0.000000  0.000000 ICntrl=     500 IOpCl=  0
         NMat0=    1 NMatS0=    1 NMatT0=    0 NMatD0=    1 NMtDS0=    0 NMtDT0=    0
         I1Cent=           4 NGrid=           0.
 Petite list used in FoFCou.
 Harris En= -1893.91207685228    
 Initial guess orbital symmetries:
       Occupied  (A) (A) (A) (A) (A) (A) (A) (A) (A) (A) (A) (A)
                 (A) (A) (A) (A) (A) (A) (A) (A) (A) (A) (A) (A)
                 (A) (A) (A) (A) (A) (A) (A) (A) (A) (A) (A) (A)
                 (A) (A) (A) (A) (A) (A) (A) (A) (A) (A) (A) (A)
                 (A) (A) (A) (A) (A) (A) (A) (A) (A) (A) (A) (A)
                 (A) (A) (A) (A) (A) (A) (A) (A) (A) (A) (A) (A)
                 (A) (A) (A) (A) (A) (A) (A) (A) (A) (A) (A) (A)
                 (A) (A) (A) (A) (A) (A) (A)
       Virtual   (A) (A) (A) (A) (A) (A) (A) (A) (A) (A) (A) (A)
                 (A) (A) (A) (A) (A) (A) (A) (A) (A) (A) (A) (A)
                 (A) (A) (A) (A) (A) (A) (A) (A) (A) (A) (A) (A)
                 (A) (A) (A) (A) (A) (A) (A) (A) (A) (A) (A) (A)
                 (A) (A) (A) (A) (A) (A) (A) (A) (A) (A) (A) (A)
                 (A) (A) (A) (A) (A) (A) (A) (A) (A) (A) (A) (A)
                 (A) (A) (A) (A) (A) (A) (A) (A) (A) (A) (A) (A)
                 (A) (A) (A) (A) (A) (A) (A) (A) (A) (A) (A) (A)
                 (A) (A) (A) (A) (A) (A) (A) (A) (A) (A) (A) (A)
                 (A) (A) (A) (A) (A) (A) (A) (A) (A) (A) (A) (A)
                 (A) (A) (A) (A) (A) (A) (A) (A) (A) (A) (A) (A)
                 (A) (A) (A) (A) (A) (A) (A) (A) (A) (A) (A) (A)
                 (A) (A) (A) (A) (A) (A) (A) (A) (A) (A) (A) (A)
                 (A) (A) (A) (A) (A) (A) (A) (A) (A) (A) (A) (A)
                 (A) (A) (A) (A) (A) (A) (A) (A) (A) (A) (A) (A)
                 (A) (A) (A) (A) (A) (A) (A) (A) (A) (A) (A) (A)
                 (A) (A) (A) (A) (A) (A) (A) (A) (A) (A) (A) (A)
                 (A) (A) (A) (A) (A) (A) (A) (A) (A) (A) (A) (A)
                 (A) (A) (A) (A) (A) (A) (A) (A) (A) (A) (A) (A)
                 (A) (A) (A) (A) (A) (A) (A) (A) (A) (A) (A) (A)
                 (A) (A) (A) (A) (A) (A) (A) (A) (A) (A) (A) (A)
                 (A) (A) (A) (A) (A) (A) (A) (A) (A) (A) (A) (A)
                 (A) (A) (A) (A) (A) (A) (A) (A) (A) (A) (A) (A)
                 (A) (A) (A) (A) (A) (A) (A) (A) (A) (A) (A) (A)
                 (A) (A) (A) (A) (A) (A) (A) (A) (A) (A) (A) (A)
                 (A) (A) (A) (A) (A) (A) (A) (A) (A) (A) (A) (A)
                 (A) (A) (A) (A) (A) (A) (A) (A) (A) (A) (A) (A)
                 (A) (A) (A) (A) (A) (A) (A) (A) (A) (A) (A) (A)
                 (A) (A) (A) (A) (A) (A) (A) (A) (A) (A) (A) (A)
                 (A) (A) (A) (A) (A) (A) (A) (A) (A) (A) (A) (A)
                 (A) (A) (A) (A) (A) (A) (A) (A) (A) (A) (A) (A)
                 (A) (A) (A) (A) (A) (A) (A) (A) (A) (A) (A) (A)
                 (A) (A) (A) (A) (A) (A) (A) (A) (A) (A) (A) (A)
                 (A) (A) (A) (A) (A) (A) (A) (A) (A) (A) (A) (A)
                 (A) (A) (A) (A) (A) (A) (A) (A) (A) (A) (A) (A)
                 (A) (A) (A) (A) (A) (A) (A) (A) (A) (A) (A) (A)
                 (A) (A) (A) (A) (A) (A) (A) (A) (A) (A) (A) (A)
                 (A) (A) (A) (A) (A) (A) (A) (A) (A) (A) (A) (A)
                 (A) (A) (A) (A) (A) (A) (A) (A) (A) (A) (A) (A)
                 (A) (A) (A) (A) (A) (A) (A) (A) (A) (A) (A) (A)
                 (A) (A) (A) (A) (A) (A) (A) (A) (A) (A) (A) (A)
                 (A) (A) (A) (A) (A) (A) (A) (A) (A) (A) (A) (A)
                 (A) (A) (A) (A) (A) (A) (A) (A) (A) (A) (A) (A)
                 (A) (A) (A)
 The electronic state of the initial guess is 1-A.
 Leave Link  401 at Tue Jul 09 16:59:02 2019, MaxMem=  209715200 cpu:      13.0
 (Enter C:\G09W\l502.exe)
 Closed shell SCF:
 Requested convergence on RMS density matrix=1.00D-08 within 128 cycles.
 Requested convergence on MAX density matrix=1.00D-06.
 Requested convergence on             energy=1.00D-06.
 No special actions if energy rises.
 Using DIIS extrapolation, IDIIS=  1040.
 Integral symmetry usage will be decided dynamically.
       310763 words used for storage of precomputed grid.
 IEnd=     1550153 IEndB=     1550153 NGot=   209715200 MDV=   208586820
 LenX=   208586820 LenY=   208181688
 Fock matrices will be formed incrementally for  20 cycles.

 Cycle   1  Pass 1  IDiag  1:
 FoFCou: FMM=F IPFlag=           0 FMFlag=      100000 FMFlg1=           0
         NFxFlg=           0 DoJE=F BraDBF=F KetDBF=F FulRan=T
         Omega=  0.000000  0.000000  1.000000  0.000000  0.000000 ICntrl=       0 IOpCl=  0
         NMat0=    1 NMatS0=    1 NMatT0=    0 NMatD0=    1 NMtDS0=    0 NMtDT0=    0
         I1Cent=           0 NGrid=           0.
 Symmetry not used in FoFCou.
 E= -1893.28464730406    
 DIIS: error= 1.46D-02 at cycle   1 NSaved=   1.
 NSaved= 1 IEnMin= 1 EnMin= -1893.28464730406     IErMin= 1 ErrMin= 1.46D-02
 ErrMax= 1.46D-02 EMaxC= 1.00D-01 BMatC= 7.48D-01 BMatP= 7.48D-01
 IDIUse=3 WtCom= 8.54D-01 WtEn= 1.46D-01
 Coeff-Com:  0.100D+01
 Coeff-En:   0.100D+01
 Coeff:      0.100D+01
 Gap=     0.283 Goal=   None    Shift=    0.000
 GapD=    0.283 DampG=1.000 DampE=0.500 DampFc=0.5000 IDamp=-1.
 Damping current iteration by 5.00D-01
 RMSDP=2.18D-02 MaxDP=1.83D+00              OVMax= 2.78D-01

 Cycle   2  Pass 1  IDiag  1:
 RMSU=  7.66D-03    CP:  9.80D-01
 E= -1893.47545132383     Delta-E=       -0.190804019760 Rises=F Damp=T
 DIIS: error= 7.17D-03 at cycle   2 NSaved=   2.
 NSaved= 2 IEnMin= 2 EnMin= -1893.47545132383     IErMin= 2 ErrMin= 7.17D-03
 ErrMax= 7.17D-03 EMaxC= 1.00D-01 BMatC= 8.37D-02 BMatP= 7.48D-01
 IDIUse=3 WtCom= 9.28D-01 WtEn= 7.17D-02
 Coeff-Com:  0.131D+00 0.869D+00
 Coeff-En:   0.281D+00 0.719D+00
 Coeff:      0.142D+00 0.858D+00
 Gap=     0.310 Goal=   None    Shift=    0.000
 RMSDP=1.09D-02 MaxDP=1.36D+00 DE=-1.91D-01 OVMax= 1.96D-01

 Cycle   3  Pass 1  IDiag  1:
 RMSU=  4.82D-03    CP:  8.52D-01  6.26D-01
 E= -1893.77468104670     Delta-E=       -0.299229722879 Rises=F Damp=F
 DIIS: error= 1.01D-02 at cycle   3 NSaved=   3.
 NSaved= 3 IEnMin= 3 EnMin= -1893.77468104670     IErMin= 2 ErrMin= 7.17D-03
 ErrMax= 1.01D-02 EMaxC= 1.00D-01 BMatC= 1.01D-01 BMatP= 8.37D-02
 IDIUse=2 WtCom= 0.00D+00 WtEn= 1.00D+00
 Coeff-En:   0.000D+00 0.000D+00 0.100D+01
 Coeff:      0.000D+00 0.000D+00 0.100D+01
 Gap=     0.208 Goal=   None    Shift=    0.000
 RMSDP=1.13D-02 MaxDP=9.51D-01 DE=-2.99D-01 OVMax= 3.64D-01

 Cycle   4  Pass 1  IDiag  1:
 RMSU=  6.71D-03    CP:  9.08D-01  1.10D+00  1.05D+00
 E= -1893.34815570969     Delta-E=        0.426525337014 Rises=F Damp=F
 DIIS: error= 2.67D-02 at cycle   4 NSaved=   4.
 NSaved= 4 IEnMin= 3 EnMin= -1893.77468104670     IErMin= 2 ErrMin= 7.17D-03
 ErrMax= 2.67D-02 EMaxC= 1.00D-01 BMatC= 6.11D-01 BMatP= 8.37D-02
 IDIUse=2 WtCom= 0.00D+00 WtEn= 1.00D+00
 Coeff-En:   0.000D+00 0.000D+00 0.806D+00 0.194D+00
 Coeff:      0.000D+00 0.000D+00 0.806D+00 0.194D+00
 Gap=     0.198 Goal=   None    Shift=    0.000
 RMSDP=7.25D-03 MaxDP=6.26D-01 DE= 4.27D-01 OVMax= 1.32D-01

 Cycle   5  Pass 1  IDiag  1:
 RMSU=  1.05D-03    CP:  8.50D-01  8.22D-01  9.64D-01  4.24D-01
 E= -1893.81543754869     Delta-E=       -0.467281838997 Rises=F Damp=F
 DIIS: error= 7.09D-03 at cycle   5 NSaved=   5.
 NSaved= 5 IEnMin= 5 EnMin= -1893.81543754869     IErMin= 5 ErrMin= 7.09D-03
 ErrMax= 7.09D-03 EMaxC= 1.00D-01 BMatC= 5.04D-02 BMatP= 8.37D-02
 IDIUse=3 WtCom= 9.29D-01 WtEn= 7.09D-02
 Coeff-Com:  0.666D-02 0.133D-01 0.360D+00-0.479D-01 0.668D+00
 Coeff-En:   0.000D+00 0.000D+00 0.374D+00 0.000D+00 0.626D+00
 Coeff:      0.619D-02 0.124D-01 0.361D+00-0.445D-01 0.665D+00
 Gap=     0.189 Goal=   None    Shift=    0.000
 RMSDP=2.15D-03 MaxDP=1.86D-01 DE=-4.67D-01 OVMax= 4.17D-02

 Cycle   6  Pass 1  IDiag  1:
 RMSU=  5.52D-04    CP:  8.36D-01  7.52D-01  9.75D-01  2.53D-01  8.41D-01
 E= -1893.85552969959     Delta-E=       -0.040092150903 Rises=F Damp=F
 DIIS: error= 1.08D-03 at cycle   6 NSaved=   6.
 NSaved= 6 IEnMin= 6 EnMin= -1893.85552969959     IErMin= 6 ErrMin= 1.08D-03
 ErrMax= 1.08D-03 EMaxC= 1.00D-01 BMatC= 8.14D-04 BMatP= 5.04D-02
 IDIUse=3 WtCom= 9.89D-01 WtEn= 1.08D-02
 Coeff-Com:  0.314D-02 0.311D-02 0.184D+00-0.549D-01 0.449D+00 0.416D+00
 Coeff-En:   0.000D+00 0.000D+00 0.000D+00 0.000D+00 0.000D+00 0.100D+01
 Coeff:      0.310D-02 0.307D-02 0.182D+00-0.543D-01 0.444D+00 0.422D+00
 Gap=     0.187 Goal=   None    Shift=    0.000
 RMSDP=3.32D-04 MaxDP=3.58D-02 DE=-4.01D-02 OVMax= 9.05D-03

 Cycle   7  Pass 1  IDiag  1:
 RMSU=  9.60D-05    CP:  8.36D-01  7.51D-01  9.73D-01  2.58D-01  8.76D-01
                    CP:  6.27D-01
 E= -1893.85617653845     Delta-E=       -0.000646838856 Rises=F Damp=F
 DIIS: error= 2.11D-04 at cycle   7 NSaved=   7.
 NSaved= 7 IEnMin= 7 EnMin= -1893.85617653845     IErMin= 7 ErrMin= 2.11D-04
 ErrMax= 2.11D-04 EMaxC= 1.00D-01 BMatC= 4.19D-05 BMatP= 8.14D-04
 IDIUse=3 WtCom= 9.98D-01 WtEn= 2.11D-03
 Coeff-Com:  0.143D-02-0.229D-03 0.702D-01-0.255D-01 0.178D+00 0.201D+00
 Coeff-Com:  0.576D+00
 Coeff-En:   0.000D+00 0.000D+00 0.000D+00 0.000D+00 0.000D+00 0.000D+00
 Coeff-En:   0.100D+01
 Coeff:      0.142D-02-0.229D-03 0.701D-01-0.254D-01 0.177D+00 0.200D+00
 Coeff:      0.577D+00
 Gap=     0.187 Goal=   None    Shift=    0.000
 RMSDP=1.13D-04 MaxDP=1.20D-02 DE=-6.47D-04 OVMax= 2.12D-03

 Cycle   8  Pass 1  IDiag  1:
 RMSU=  4.22D-05    CP:  8.37D-01  7.48D-01  9.74D-01  2.52D-01  8.60D-01
                    CP:  5.82D-01  6.61D-01
 E= -1893.85620642805     Delta-E=       -0.000029889608 Rises=F Damp=F
 DIIS: error= 7.46D-05 at cycle   8 NSaved=   8.
 NSaved= 8 IEnMin= 8 EnMin= -1893.85620642805     IErMin= 8 ErrMin= 7.46D-05
 ErrMax= 7.46D-05 EMaxC= 1.00D-01 BMatC= 9.71D-06 BMatP= 4.19D-05
 IDIUse=1 WtCom= 1.00D+00 WtEn= 0.00D+00
 Coeff-Com:  0.642D-03-0.152D-02 0.129D-01-0.492D-02 0.268D-01 0.374D-01
 Coeff-Com:  0.363D+00 0.565D+00
 Coeff:      0.642D-03-0.152D-02 0.129D-01-0.492D-02 0.268D-01 0.374D-01
 Coeff:      0.363D+00 0.565D+00
 Gap=     0.187 Goal=   None    Shift=    0.000
 RMSDP=3.41D-05 MaxDP=2.41D-03 DE=-2.99D-05 OVMax= 5.01D-04

 Cycle   9  Pass 1  IDiag  1:
 RMSU=  1.80D-05    CP:  8.36D-01  7.47D-01  9.74D-01  2.51D-01  8.61D-01
                    CP:  5.85D-01  7.13D-01  7.44D-01
 E= -1893.85621334692     Delta-E=       -0.000006918868 Rises=F Damp=F
 DIIS: error= 1.40D-05 at cycle   9 NSaved=   9.
 NSaved= 9 IEnMin= 9 EnMin= -1893.85621334692     IErMin= 9 ErrMin= 1.40D-05
 ErrMax= 1.40D-05 EMaxC= 1.00D-01 BMatC= 4.12D-07 BMatP= 9.71D-06
 IDIUse=1 WtCom= 1.00D+00 WtEn= 0.00D+00
 Coeff-Com:  0.334D-03-0.913D-03 0.372D-02-0.135D-02 0.544D-02 0.101D-01
 Coeff-Com:  0.177D+00 0.315D+00 0.490D+00
 Coeff:      0.334D-03-0.913D-03 0.372D-02-0.135D-02 0.544D-02 0.101D-01
 Coeff:      0.177D+00 0.315D+00 0.490D+00
 Gap=     0.187 Goal=   None    Shift=    0.000
 RMSDP=1.28D-05 MaxDP=1.23D-03 DE=-6.92D-06 OVMax= 2.94D-04

 Cycle  10  Pass 1  IDiag  1:
 RMSU=  6.03D-06    CP:  8.36D-01  7.47D-01  9.74D-01  2.51D-01  8.61D-01
                    CP:  5.84D-01  7.21D-01  7.74D-01  7.58D-01
 E= -1893.85621368291     Delta-E=       -0.000000335988 Rises=F Damp=F
 DIIS: error= 5.88D-06 at cycle  10 NSaved=  10.
 NSaved=10 IEnMin=10 EnMin= -1893.85621368291     IErMin=10 ErrMin= 5.88D-06
 ErrMax= 5.88D-06 EMaxC= 1.00D-01 BMatC= 4.24D-08 BMatP= 4.12D-07
 IDIUse=1 WtCom= 1.00D+00 WtEn= 0.00D+00
 Coeff-Com:  0.920D-04-0.265D-03 0.122D-03-0.801D-05-0.925D-03 0.389D-03
 Coeff-Com:  0.418D-01 0.829D-01 0.275D+00 0.601D+00
 Coeff:      0.920D-04-0.265D-03 0.122D-03-0.801D-05-0.925D-03 0.389D-03
 Coeff:      0.418D-01 0.829D-01 0.275D+00 0.601D+00
 Gap=     0.187 Goal=   None    Shift=    0.000
 RMSDP=6.81D-06 MaxDP=6.04D-04 DE=-3.36D-07 OVMax= 1.13D-04

 Cycle  11  Pass 1  IDiag  1:
 RMSU=  1.77D-06    CP:  8.36D-01  7.47D-01  9.74D-01  2.51D-01  8.61D-01
                    CP:  5.85D-01  7.31D-01  7.51D-01  7.39D-01  7.43D-01
 E= -1893.85621371471     Delta-E=       -0.000000031795 Rises=F Damp=F
 DIIS: error= 3.48D-06 at cycle  11 NSaved=  11.
 NSaved=11 IEnMin=11 EnMin= -1893.85621371471     IErMin=11 ErrMin= 3.48D-06
 ErrMax= 3.48D-06 EMaxC= 1.00D-01 BMatC= 9.59D-09 BMatP= 4.24D-08
 IDIUse=1 WtCom= 1.00D+00 WtEn= 0.00D+00
 Coeff-Com:  0.207D-04-0.668D-04-0.216D-03 0.770D-04-0.790D-03-0.224D-03
 Coeff-Com:  0.801D-02 0.180D-01 0.119D+00 0.395D+00 0.461D+00
 Coeff:      0.207D-04-0.668D-04-0.216D-03 0.770D-04-0.790D-03-0.224D-03
 Coeff:      0.801D-02 0.180D-01 0.119D+00 0.395D+00 0.461D+00
 Gap=     0.187 Goal=   None    Shift=    0.000
 RMSDP=1.19D-06 MaxDP=7.15D-05 DE=-3.18D-08 OVMax= 2.52D-05

 Cycle  12  Pass 1  IDiag  1:
 RMSU=  4.38D-07    CP:  8.36D-01  7.47D-01  9.74D-01  2.51D-01  8.61D-01
                    CP:  5.85D-01  7.30D-01  7.53D-01  7.41D-01  7.61D-01
                    CP:  7.41D-01
 E= -1893.85621372340     Delta-E=       -0.000000008691 Rises=F Damp=F
 DIIS: error= 7.99D-07 at cycle  12 NSaved=  12.
 NSaved=12 IEnMin=12 EnMin= -1893.85621372340     IErMin=12 ErrMin= 7.99D-07
 ErrMax= 7.99D-07 EMaxC= 1.00D-01 BMatC= 3.77D-10 BMatP= 9.59D-09
 IDIUse=1 WtCom= 1.00D+00 WtEn= 0.00D+00
 Coeff-Com:  0.191D-05-0.124D-04-0.146D-03 0.503D-04-0.393D-03-0.105D-03
 Coeff-Com:  0.884D-03 0.305D-02 0.395D-01 0.161D+00 0.219D+00 0.577D+00
 Coeff:      0.191D-05-0.124D-04-0.146D-03 0.503D-04-0.393D-03-0.105D-03
 Coeff:      0.884D-03 0.305D-02 0.395D-01 0.161D+00 0.219D+00 0.577D+00
 Gap=     0.187 Goal=   None    Shift=    0.000
 RMSDP=6.13D-07 MaxDP=4.52D-05 DE=-8.69D-09 OVMax= 7.69D-06

 Cycle  13  Pass 1  IDiag  1:
 RMSU=  1.34D-07    CP:  8.36D-01  7.47D-01  9.74D-01  2.51D-01  8.61D-01
                    CP:  5.85D-01  7.28D-01  7.57D-01  7.55D-01  7.64D-01
                    CP:  7.01D-01  7.16D-01
 E= -1893.85621372365     Delta-E=       -0.000000000256 Rises=F Damp=F
 DIIS: error= 4.70D-07 at cycle  13 NSaved=  13.
 NSaved=13 IEnMin=13 EnMin= -1893.85621372365     IErMin=13 ErrMin= 4.70D-07
 ErrMax= 4.70D-07 EMaxC= 1.00D-01 BMatC= 8.52D-11 BMatP= 3.77D-10
 IDIUse=1 WtCom= 1.00D+00 WtEn= 0.00D+00
 Coeff-Com: -0.239D-05 0.393D-05-0.616D-04 0.190D-04-0.126D-03 0.180D-06
 Coeff-Com: -0.545D-03-0.677D-03 0.586D-02 0.404D-01 0.584D-01 0.342D+00
 Coeff-Com:  0.554D+00
 Coeff:     -0.239D-05 0.393D-05-0.616D-04 0.190D-04-0.126D-03 0.180D-06
 Coeff:     -0.545D-03-0.677D-03 0.586D-02 0.404D-01 0.584D-01 0.342D+00
 Coeff:      0.554D+00
 Gap=     0.187 Goal=   None    Shift=    0.000
 RMSDP=1.12D-07 MaxDP=1.17D-05 DE=-2.56D-10 OVMax= 3.32D-06

 Cycle  14  Pass 1  IDiag  1:
 RMSU=  5.94D-08    CP:  8.36D-01  7.47D-01  9.74D-01  2.51D-01  8.61D-01
                    CP:  5.85D-01  7.28D-01  7.57D-01  7.56D-01  7.67D-01
                    CP:  6.96D-01  7.51D-01  8.88D-01
 E= -1893.85621372387     Delta-E=       -0.000000000213 Rises=F Damp=F
 DIIS: error= 1.03D-07 at cycle  14 NSaved=  14.
 NSaved=14 IEnMin=14 EnMin= -1893.85621372387     IErMin=14 ErrMin= 1.03D-07
 ErrMax= 1.03D-07 EMaxC= 1.00D-01 BMatC= 5.91D-12 BMatP= 8.52D-11
 IDIUse=1 WtCom= 1.00D+00 WtEn= 0.00D+00
 Coeff-Com: -0.134D-05 0.283D-05-0.130D-04 0.353D-05-0.148D-04 0.182D-04
 Coeff-Com: -0.289D-03-0.590D-03-0.199D-02-0.729D-03-0.634D-03 0.789D-01
 Coeff-Com:  0.248D+00 0.677D+00
 Coeff:     -0.134D-05 0.283D-05-0.130D-04 0.353D-05-0.148D-04 0.182D-04
 Coeff:     -0.289D-03-0.590D-03-0.199D-02-0.729D-03-0.634D-03 0.789D-01
 Coeff:      0.248D+00 0.677D+00
 Gap=     0.187 Goal=   None    Shift=    0.000
 RMSDP=8.94D-08 MaxDP=6.84D-06 DE=-2.13D-10 OVMax= 8.48D-07

 Cycle  15  Pass 1  IDiag  1:
 RMSU=  1.70D-08    CP:  8.36D-01  7.47D-01  9.74D-01  2.51D-01  8.61D-01
                    CP:  5.85D-01  7.29D-01  7.57D-01  7.55D-01  7.67D-01
                    CP:  7.05D-01  7.70D-01  8.78D-01  8.33D-01
 E= -1893.85621372382     Delta-E=        0.000000000045 Rises=F Damp=F
 DIIS: error= 2.29D-08 at cycle  15 NSaved=  15.
 NSaved=15 IEnMin=14 EnMin= -1893.85621372387     IErMin=15 ErrMin= 2.29D-08
 ErrMax= 2.29D-08 EMaxC= 1.00D-01 BMatC= 6.70D-13 BMatP= 5.91D-12
 IDIUse=1 WtCom= 1.00D+00 WtEn= 0.00D+00
 Coeff-Com: -0.559D-06 0.125D-05-0.219D-05 0.395D-06 0.259D-05 0.973D-05
 Coeff-Com: -0.121D-03-0.297D-03-0.170D-02-0.425D-02-0.563D-02 0.128D-01
 Coeff-Com:  0.840D-01 0.357D+00 0.558D+00
 Coeff:     -0.559D-06 0.125D-05-0.219D-05 0.395D-06 0.259D-05 0.973D-05
 Coeff:     -0.121D-03-0.297D-03-0.170D-02-0.425D-02-0.563D-02 0.128D-01
 Coeff:      0.840D-01 0.357D+00 0.558D+00
 Gap=     0.187 Goal=   None    Shift=    0.000
 RMSDP=1.21D-08 MaxDP=1.04D-06 DE= 4.46D-11 OVMax= 2.55D-07

 Cycle  16  Pass 1  IDiag  1:
 RMSU=  4.72D-09    CP:  8.36D-01  7.47D-01  9.74D-01  2.51D-01  8.61D-01
                    CP:  5.85D-01  7.29D-01  7.57D-01  7.55D-01  7.66D-01
                    CP:  7.06D-01  7.70D-01  8.89D-01  8.84D-01  8.76D-01
 E= -1893.85621372378     Delta-E=        0.000000000041 Rises=F Damp=F
 DIIS: error= 7.90D-09 at cycle  16 NSaved=  16.
 NSaved=16 IEnMin=14 EnMin= -1893.85621372387     IErMin=16 ErrMin= 7.90D-09
 ErrMax= 7.90D-09 EMaxC= 1.00D-01 BMatC= 6.65D-14 BMatP= 6.70D-13
 IDIUse=1 WtCom= 1.00D+00 WtEn= 0.00D+00
 Coeff-Com: -0.137D-06 0.306D-06 0.189D-07-0.983D-07 0.237D-05 0.317D-05
 Coeff-Com: -0.266D-04-0.875D-04-0.606D-03-0.193D-02-0.259D-02-0.572D-03
 Coeff-Com:  0.185D-01 0.115D+00 0.294D+00 0.578D+00
 Coeff:     -0.137D-06 0.306D-06 0.189D-07-0.983D-07 0.237D-05 0.317D-05
 Coeff:     -0.266D-04-0.875D-04-0.606D-03-0.193D-02-0.259D-02-0.572D-03
 Coeff:      0.185D-01 0.115D+00 0.294D+00 0.578D+00
 Gap=     0.187 Goal=   None    Shift=    0.000
 RMSDP=7.93D-09 MaxDP=7.69D-07 DE= 4.09D-11 OVMax= 9.14D-08

 SCF Done:  E(RB3LYP) =  -1893.85621372     A.U. after   16 cycles
             Convg  =    0.7925D-08             -V/T =  2.0027
 KE= 1.888802074072D+03 PE=-8.796329507934D+03 EE= 2.845035278433D+03
 Leave Link  502 at Tue Jul 09 17:22:00 2019, MaxMem=  209715200 cpu:    1378.0
 (Enter C:\G09W\l601.exe)
 Copying SCF densities to generalized density rwf, IOpCl= 0 IROHF=0.

 **********************************************************************

            Population analysis using the SCF density.

 **********************************************************************

 Orbital symmetries:
       Occupied  (A) (A) (A) (A) (A) (A) (A) (A) (A) (A) (A) (A)
                 (A) (A) (A) (A) (A) (A) (A) (A) (A) (A) (A) (A)
                 (A) (A) (A) (A) (A) (A) (A) (A) (A) (A) (A) (A)
                 (A) (A) (A) (A) (A) (A) (A) (A) (A) (A) (A) (A)
                 (A) (A) (A) (A) (A) (A) (A) (A) (A) (A) (A) (A)
                 (A) (A) (A) (A) (A) (A) (A) (A) (A) (A) (A) (A)
                 (A) (A) (A) (A) (A) (A) (A) (A) (A) (A) (A) (A)
                 (A) (A) (A) (A) (A) (A) (A)
       Virtual   (A) (A) (A) (A) (A) (A) (A) (A) (A) (A) (A) (A)
                 (A) (A) (A) (A) (A) (A) (A) (A) (A) (A) (A) (A)
                 (A) (A) (A) (A) (A) (A) (A) (A) (A) (A) (A) (A)
                 (A) (A) (A) (A) (A) (A) (A) (A) (A) (A) (A) (A)
                 (A) (A) (A) (A) (A) (A) (A) (A) (A) (A) (A) (A)
                 (A) (A) (A) (A) (A) (A) (A) (A) (A) (A) (A) (A)
                 (A) (A) (A) (A) (A) (A) (A) (A) (A) (A) (A) (A)
                 (A) (A) (A) (A) (A) (A) (A) (A) (A) (A) (A) (A)
                 (A) (A) (A) (A) (A) (A) (A) (A) (A) (A) (A) (A)
                 (A) (A) (A) (A) (A) (A) (A) (A) (A) (A) (A) (A)
                 (A) (A) (A) (A) (A) (A) (A) (A) (A) (A) (A) (A)
                 (A) (A) (A) (A) (A) (A) (A) (A) (A) (A) (A) (A)
                 (A) (A) (A) (A) (A) (A) (A) (A) (A) (A) (A) (A)
                 (A) (A) (A) (A) (A) (A) (A) (A) (A) (A) (A) (A)
                 (A) (A) (A) (A) (A) (A) (A) (A) (A) (A) (A) (A)
                 (A) (A) (A) (A) (A) (A) (A) (A) (A) (A) (A) (A)
                 (A) (A) (A) (A) (A) (A) (A) (A) (A) (A) (A) (A)
                 (A) (A) (A) (A) (A) (A) (A) (A) (A) (A) (A) (A)
                 (A) (A) (A) (A) (A) (A) (A) (A) (A) (A) (A) (A)
                 (A) (A) (A) (A) (A) (A) (A) (A) (A) (A) (A) (A)
                 (A) (A) (A) (A) (A) (A) (A) (A) (A) (A) (A) (A)
                 (A) (A) (A) (A) (A) (A) (A) (A) (A) (A) (A) (A)
                 (A) (A) (A) (A) (A) (A) (A) (A) (A) (A) (A) (A)
                 (A) (A) (A) (A) (A) (A) (A) (A) (A) (A) (A) (A)
                 (A) (A) (A) (A) (A) (A) (A) (A) (A) (A) (A) (A)
                 (A) (A) (A) (A) (A) (A) (A) (A) (A) (A) (A) (A)
                 (A) (A) (A) (A) (A) (A) (A) (A) (A) (A) (A) (A)
                 (A) (A) (A) (A) (A) (A) (A) (A) (A) (A) (A) (A)
                 (A) (A) (A) (A) (A) (A) (A) (A) (A) (A) (A) (A)
                 (A) (A) (A) (A) (A) (A) (A) (A) (A) (A) (A) (A)
                 (A) (A) (A) (A) (A) (A) (A) (A) (A) (A) (A) (A)
                 (A) (A) (A) (A) (A) (A) (A) (A) (A) (A) (A) (A)
                 (A) (A) (A) (A) (A) (A) (A) (A) (A) (A) (A) (A)
                 (A) (A) (A) (A) (A) (A) (A) (A) (A) (A) (A) (A)
                 (A) (A) (A) (A) (A) (A) (A) (A) (A) (A) (A) (A)
                 (A) (A) (A) (A) (A) (A) (A) (A) (A) (A) (A) (A)
                 (A) (A) (A) (A) (A) (A) (A) (A) (A) (A) (A) (A)
                 (A) (A) (A) (A) (A) (A) (A) (A) (A) (A) (A) (A)
                 (A) (A) (A) (A) (A) (A) (A) (A) (A) (A) (A) (A)
                 (A) (A) (A) (A) (A) (A) (A) (A) (A) (A) (A) (A)
                 (A) (A) (A) (A) (A) (A) (A) (A) (A) (A) (A) (A)
                 (A) (A) (A) (A) (A) (A) (A) (A) (A) (A) (A) (A)
                 (A) (A) (A) (A) (A) (A) (A) (A) (A) (A) (A) (A)
                 (A) (A) (A)
 The electronic state is 1-A.
 Alpha  occ. eigenvalues -- -101.57840-101.56919 -19.21430 -19.17758 -19.14389
 Alpha  occ. eigenvalues --  -19.10790 -14.37328 -10.30272 -10.28872 -10.26906
 Alpha  occ. eigenvalues --  -10.26126 -10.25673 -10.24290 -10.24076 -10.23047
 Alpha  occ. eigenvalues --  -10.20831 -10.20222 -10.20007 -10.19784 -10.19703
 Alpha  occ. eigenvalues --  -10.18998 -10.18939 -10.18508  -9.49314  -9.48355
 Alpha  occ. eigenvalues --   -7.25801  -7.24828  -7.24769  -7.24753  -7.23815
 Alpha  occ. eigenvalues --   -7.23814  -1.15902  -1.13480  -1.06536  -1.04569
 Alpha  occ. eigenvalues --   -0.99488  -0.89964  -0.89670  -0.88293  -0.83456
 Alpha  occ. eigenvalues --   -0.81985  -0.80422  -0.78337  -0.78072  -0.74839
 Alpha  occ. eigenvalues --   -0.71559  -0.68346  -0.65054  -0.63939  -0.63455
 Alpha  occ. eigenvalues --   -0.62281  -0.59614  -0.58306  -0.56846  -0.55588
 Alpha  occ. eigenvalues --   -0.54365  -0.53742  -0.52457  -0.50536  -0.49919
 Alpha  occ. eigenvalues --   -0.49285  -0.48627  -0.47003  -0.46270  -0.45393
 Alpha  occ. eigenvalues --   -0.44884  -0.44629  -0.44169  -0.43855  -0.43228
 Alpha  occ. eigenvalues --   -0.42132  -0.41789  -0.41185  -0.39889  -0.39663
 Alpha  occ. eigenvalues --   -0.38900  -0.38375  -0.37405  -0.36661  -0.36567
 Alpha  occ. eigenvalues --   -0.34368  -0.34265  -0.33338  -0.32781  -0.30638
 Alpha  occ. eigenvalues --   -0.30378  -0.28859  -0.28655  -0.27818  -0.24510
 Alpha  occ. eigenvalues --   -0.23693
 Alpha virt. eigenvalues --   -0.04970  -0.04411  -0.02761  -0.02150  -0.01804
 Alpha virt. eigenvalues --   -0.00766  -0.00568  -0.00188   0.00395   0.00936
 Alpha virt. eigenvalues --    0.01195   0.01840   0.01992   0.02297   0.02920
 Alpha virt. eigenvalues --    0.03079   0.03326   0.03960   0.04296   0.04845
 Alpha virt. eigenvalues --    0.05377   0.05688   0.05880   0.06503   0.07006
 Alpha virt. eigenvalues --    0.07125   0.07416   0.07849   0.08030   0.08152
 Alpha virt. eigenvalues --    0.08349   0.09028   0.09080   0.09162   0.09530
 Alpha virt. eigenvalues --    0.09848   0.10136   0.10144   0.10309   0.10789
 Alpha virt. eigenvalues --    0.11043   0.11396   0.11527   0.11636   0.12007
 Alpha virt. eigenvalues --    0.12279   0.12529   0.12566   0.12751   0.13167
 Alpha virt. eigenvalues --    0.13704   0.13747   0.14020   0.14195   0.14449
 Alpha virt. eigenvalues --    0.14543   0.15009   0.15243   0.15375   0.15623
 Alpha virt. eigenvalues --    0.15984   0.16091   0.16348   0.16640   0.16825
 Alpha virt. eigenvalues --    0.17253   0.17447   0.17939   0.18311   0.18549
 Alpha virt. eigenvalues --    0.18820   0.19181   0.19833   0.19958   0.20454
 Alpha virt. eigenvalues --    0.20648   0.20851   0.20919   0.21427   0.21643
 Alpha virt. eigenvalues --    0.22033   0.22687   0.23023   0.23354   0.23414
 Alpha virt. eigenvalues --    0.23806   0.24143   0.24172   0.24790   0.24876
 Alpha virt. eigenvalues --    0.25141   0.25542   0.25744   0.25958   0.26385
 Alpha virt. eigenvalues --    0.26715   0.27294   0.27697   0.28166   0.28200
 Alpha virt. eigenvalues --    0.28429   0.29216   0.29339   0.29659   0.29693
 Alpha virt. eigenvalues --    0.29826   0.30027   0.30470   0.30908   0.31318
 Alpha virt. eigenvalues --    0.31460   0.31659   0.31932   0.32236   0.32796
 Alpha virt. eigenvalues --    0.33088   0.33847   0.34252   0.34749   0.34897
 Alpha virt. eigenvalues --    0.35174   0.35406   0.36132   0.36446   0.36768
 Alpha virt. eigenvalues --    0.36967   0.37451   0.37915   0.38551   0.38948
 Alpha virt. eigenvalues --    0.39938   0.40228   0.40613   0.40911   0.41095
 Alpha virt. eigenvalues --    0.41885   0.42302   0.43065   0.43509   0.44853
 Alpha virt. eigenvalues --    0.45318   0.46116   0.46355   0.46769   0.47020
 Alpha virt. eigenvalues --    0.47719   0.47766   0.49264   0.49458   0.50122
 Alpha virt. eigenvalues --    0.51122   0.52366   0.53016   0.53695   0.53847
 Alpha virt. eigenvalues --    0.54731   0.54982   0.55705   0.56482   0.56813
 Alpha virt. eigenvalues --    0.57491   0.57961   0.58151   0.59355   0.59722
 Alpha virt. eigenvalues --    0.59982   0.60190   0.60631   0.61714   0.62141
 Alpha virt. eigenvalues --    0.62691   0.64001   0.64380   0.64968   0.65662
 Alpha virt. eigenvalues --    0.65898   0.66166   0.66836   0.67523   0.67868
 Alpha virt. eigenvalues --    0.68174   0.68895   0.69816   0.70651   0.71755
 Alpha virt. eigenvalues --    0.72213   0.73032   0.73109   0.73972   0.74636
 Alpha virt. eigenvalues --    0.74697   0.75523   0.75917   0.76626   0.76742
 Alpha virt. eigenvalues --    0.77806   0.78199   0.78587   0.79253   0.81083
 Alpha virt. eigenvalues --    0.82277   0.82626   0.83028   0.84158   0.84812
 Alpha virt. eigenvalues --    0.85234   0.85560   0.85997   0.86600   0.86749
 Alpha virt. eigenvalues --    0.86972   0.87517   0.88123   0.88724   0.89228
 Alpha virt. eigenvalues --    0.89542   0.90060   0.90546   0.91296   0.91759
 Alpha virt. eigenvalues --    0.92237   0.93755   0.93876   0.94269   0.96085
 Alpha virt. eigenvalues --    0.96607   0.96960   0.97139   0.97859   0.98740
 Alpha virt. eigenvalues --    0.99011   0.99572   1.00974   1.01997   1.03162
 Alpha virt. eigenvalues --    1.04311   1.05013   1.05427   1.06034   1.07120
 Alpha virt. eigenvalues --    1.07941   1.09341   1.09670   1.10374   1.10867
 Alpha virt. eigenvalues --    1.11542   1.12531   1.13810   1.14636   1.16983
 Alpha virt. eigenvalues --    1.17427   1.18351   1.19879   1.20693   1.21932
 Alpha virt. eigenvalues --    1.22392   1.23688   1.25247   1.25891   1.27644
 Alpha virt. eigenvalues --    1.28217   1.28686   1.29837   1.30791   1.31799
 Alpha virt. eigenvalues --    1.32145   1.33847   1.35308   1.35699   1.36366
 Alpha virt. eigenvalues --    1.37518   1.38126   1.38927   1.40630   1.41913
 Alpha virt. eigenvalues --    1.42017   1.44928   1.46106   1.46222   1.47704
 Alpha virt. eigenvalues --    1.49196   1.51375   1.52255   1.53285   1.54347
 Alpha virt. eigenvalues --    1.55305   1.55891   1.56459   1.57576   1.58086
 Alpha virt. eigenvalues --    1.58851   1.59640   1.60216   1.61962   1.62468
 Alpha virt. eigenvalues --    1.63021   1.64182   1.64222   1.67133   1.67835
 Alpha virt. eigenvalues --    1.68846   1.69085   1.70126   1.72059   1.72818
 Alpha virt. eigenvalues --    1.74739   1.75503   1.76171   1.76541   1.76996
 Alpha virt. eigenvalues --    1.78051   1.78629   1.78753   1.79967   1.80279
 Alpha virt. eigenvalues --    1.82069   1.82640   1.83899   1.84690   1.87204
 Alpha virt. eigenvalues --    1.88227   1.89544   1.90130   1.90731   1.90922
 Alpha virt. eigenvalues --    1.91961   1.92519   1.92869   1.94994   1.95489
 Alpha virt. eigenvalues --    1.96566   1.97428   1.97818   1.98114   1.99052
 Alpha virt. eigenvalues --    2.00990   2.02184   2.03407   2.04180   2.05960
 Alpha virt. eigenvalues --    2.07269   2.08045   2.09048   2.09391   2.10903
 Alpha virt. eigenvalues --    2.12035   2.13016   2.13475   2.16947   2.17736
 Alpha virt. eigenvalues --    2.19460   2.20873   2.22867   2.24320   2.24992
 Alpha virt. eigenvalues --    2.26676   2.27512   2.28061   2.30078   2.30828
 Alpha virt. eigenvalues --    2.32161   2.34450   2.35511   2.38968   2.39838
 Alpha virt. eigenvalues --    2.41890   2.42693   2.45206   2.46911   2.47017
 Alpha virt. eigenvalues --    2.48118   2.51136   2.53112   2.54640   2.54805
 Alpha virt. eigenvalues --    2.56947   2.57127   2.58127   2.59349   2.61227
 Alpha virt. eigenvalues --    2.61824   2.63159   2.63812   2.65159   2.66919
 Alpha virt. eigenvalues --    2.67873   2.68831   2.70394   2.71836   2.72288
 Alpha virt. eigenvalues --    2.72728   2.73057   2.75588   2.76123   2.77088
 Alpha virt. eigenvalues --    2.77527   2.78349   2.79113   2.80655   2.80921
 Alpha virt. eigenvalues --    2.83065   2.84130   2.85172   2.87252   2.88616
 Alpha virt. eigenvalues --    2.90240   2.91908   2.92239   2.93479   2.94837
 Alpha virt. eigenvalues --    2.95400   2.96503   2.97162   2.98859   3.00109
 Alpha virt. eigenvalues --    3.01577   3.01990   3.03570   3.05406   3.06025
 Alpha virt. eigenvalues --    3.07792   3.10952   3.11601   3.13308   3.14692
 Alpha virt. eigenvalues --    3.16288   3.18331   3.19148   3.19390   3.20838
 Alpha virt. eigenvalues --    3.21401   3.22549   3.23381   3.24806   3.27298
 Alpha virt. eigenvalues --    3.28508   3.35422   3.36331   3.36947   3.37532
 Alpha virt. eigenvalues --    3.41167   3.42940   3.44641   3.49873   3.50749
 Alpha virt. eigenvalues --    3.52341   3.58818   3.61583   3.62844   3.65882
 Alpha virt. eigenvalues --    3.67718   3.72600   3.77235   3.79092   3.80623
 Alpha virt. eigenvalues --    3.83153   3.86868   3.93469   3.98924   3.99920
 Alpha virt. eigenvalues --    4.01846   4.03157   4.05360   4.09344   4.10732
 Alpha virt. eigenvalues --    4.14404   4.15465   4.17266   4.23345   4.30833
 Alpha virt. eigenvalues --    4.32180   4.36054   4.42451   4.84049   4.84434
 Alpha virt. eigenvalues --    4.98916   5.07094   5.10274   5.11792   5.17982
 Alpha virt. eigenvalues --    5.22246   5.44881   5.47998   5.48511   5.69971
 Alpha virt. eigenvalues --    5.71304   5.83645   5.92191   9.79598   9.81680
 Alpha virt. eigenvalues --   23.60883  23.64503  23.66214  23.76816  23.82792
 Alpha virt. eigenvalues --   23.86567  23.93258  23.96894  23.97675  23.99060
 Alpha virt. eigenvalues --   24.08197  24.11510  24.19136  24.19444  24.20344
 Alpha virt. eigenvalues --   24.23832  25.83165  25.86827  26.00780  26.16359
 Alpha virt. eigenvalues --   26.70172  26.73716  35.68046  49.90058  49.92835
 Alpha virt. eigenvalues --   49.96881  50.09030 215.79059 215.81597
          Condensed to atoms (all electrons):
              1          2          3          4          5          6
     1  C   12.321526  -0.584961  -4.844807   1.185804  -1.226751  -0.579919
     2  C   -0.584961  18.033122  -2.118997  -2.025962   0.002803  -3.377625
     3  C   -4.844807  -2.118997  12.336607  -0.954048  -0.805997   1.222478
     4  C    1.185804  -2.025962  -0.954048   8.681534   0.293570  -1.023143
     5  C   -1.226751   0.002803  -0.805997   0.293570   8.762447  -0.256035
     6  C   -0.579919  -3.377625   1.222478  -1.023143  -0.256035   9.823942
     7  N   -0.527708  -1.507894   0.770678   0.242244  -0.042798   0.295187
     8  C   -1.666233  -0.609563   0.763008   0.127915  -0.438451  -0.388029
     9  C    0.747306   0.735458  -1.012308   0.047356   0.053116  -0.207626
    10  C    0.840744  -1.881205  -0.062915  -0.035369   0.248893   0.700406
    11  C   -0.387771   0.343676   0.285068  -0.024593  -0.007459  -0.061409
    12  O   -0.004817   0.042296  -0.045586  -0.004100  -0.006228  -0.020378
    13  Cl   0.151966  -0.217710  -0.096256   0.009681   0.003676   0.039802
    14  O    0.008096   0.006912  -0.003895  -0.000031   0.000286   0.000394
    15  C   -0.080950  -0.079514   0.014784  -0.614686  -0.621745  -0.120526
    16  C    1.002180  -0.766903  -0.649910   0.121887   0.026987   0.214204
    17  C   -0.952641   0.809539   0.844532  -0.061476  -0.157775  -0.239232
    18  O    0.007167   0.082154  -0.044450  -0.009540   0.002916  -0.011537
    19  O   -0.007735  -0.003796   0.010453   0.001615   0.001311   0.000638
    20  C   -0.082452   0.079477   0.047865  -0.026874  -0.002080  -0.012286
    21  C    0.048978   0.054506  -0.029987   0.003415  -0.004932  -0.033491
    22  C    0.009044  -0.410011   0.140041   0.028592  -0.053700   0.152934
    23  Cl  -0.000454   0.003069  -0.000816  -0.001360  -0.000357  -0.001916
    24  H    0.092385  -0.123793  -0.089036   0.004130   0.057520  -0.001572
    25  H    0.194068   0.193046  -0.400063   0.026291   0.100009  -0.133582
    26  H    0.488885  -0.113562  -0.070858   0.039998   0.011110  -0.020886
    27  H   -0.069341  -0.151751   0.594070  -0.044853  -0.013973   0.041717
    28  H    0.043262   0.012264  -0.084461   0.337468  -0.023910   0.027139
    29  H    0.000212   0.051764   0.050061  -0.007572  -0.099238   0.333270
    30  H   -0.058670  -0.125817  -0.013492   0.001028  -0.005536   0.004126
    31  H   -0.003014  -0.010363  -0.025262  -0.040766  -0.082229   0.089415
    32  H    0.018517   0.011647   0.016760  -0.068663   0.047183   0.015311
    33  H   -0.021294   0.004788   0.008437   0.136178  -0.073787  -0.115151
    34  H    0.006805  -0.024595  -0.000994   0.001831  -0.000724   0.000680
    35  H   -0.000903   0.001294   0.000543  -0.000073  -0.000203  -0.000331
    36  H    0.000136  -0.009291   0.005971   0.000002  -0.002720   0.005437
              7          8          9         10         11         12
     1  C   -0.527708  -1.666233   0.747306   0.840744  -0.387771  -0.004817
[...]
   361. RY*(  11) C  16                  0.00010     1.51097   
   362. RY*(  12) C  16                  0.00011     1.56062   
   363. RY*(  13) C  16                  0.00008     1.84183   
   364. RY*(  14) C  16                  0.00005     2.35116   
   365. RY*(  15) C  16                  0.00005     3.20956   
   366. RY*(  16) C  16                  0.00004     1.30144   
   367. RY*(  17) C  16                  0.00001    21.61962   
   368. RY*(   1) C  17                  0.00639     1.05789   
   369. RY*(   2) C  17                  0.00493     1.56395   
   370. RY*(   3) C  17                  0.00329     0.64845   
   371. RY*(   4) C  17                  0.00197     1.56815   
   372. RY*(   5) C  17                  0.00156     1.24329   
   373. RY*(   6) C  17                  0.00074     1.71659   
   374. RY*(   7) C  17                  0.00056     1.80469   
   375. RY*(   8) C  17                  0.00030     2.23410   
   376. RY*(   9) C  17                  0.00025     1.15624   
   377. RY*(  10) C  17                  0.00019     1.49300   
   378. RY*(  11) C  17                  0.00011     0.83964   
   379. RY*(  12) C  17                  0.00012     3.41739   
   380. RY*(  13) C  17                  0.00007     2.19321   
   381. RY*(  14) C  17                  0.00004     1.96048   
   382. RY*(  15) C  17                  0.00001     2.59965   
   383. RY*(  16) C  17                  0.00001     3.07948   
   384. RY*(  17) C  17                  0.00001    20.17402   
   385. RY*(   1) O  18                  0.00230     0.78083   
   386. RY*(   2) O  18                  0.00107     0.93103   
   387. RY*(   3) O  18                  0.00060     1.07595   
   388. RY*(   4) O  18                  0.00033     1.02688   
   389. RY*(   5) O  18                  0.00009     1.48410   
   390. RY*(   6) O  18                  0.00006     1.12611   
   391. RY*(   7) O  18                  0.00005     2.04429   
   392. RY*(   8) O  18                  0.00003     1.10410   
   393. RY*(   9) O  18                  0.00003     3.46522   
   394. RY*(  10) O  18                  0.00002     2.25194   
   395. RY*(  11) O  18                  0.00000     4.96749   
   396. RY*(  12) O  18                  0.00000     4.74611   
   397. RY*(  13) O  18                  0.00000     2.97218   
   398. RY*(  14) O  18                  0.00000     5.18470   
   399. RY*(  15) O  18                  0.00000    49.68964   
   400. RY*(  16) O  18                  0.00000     3.33742   
   401. RY*(  17) O  18                  0.00001     2.80311   
   402. RY*(   1) O  19                  0.00471     0.47778   
   403. RY*(   2) O  19                  0.00278     0.56157   
   404. RY*(   3) O  19                  0.00264     0.51818   
   405. RY*(   4) O  19                  0.00164     0.71703   
   406. RY*(   5) O  19                  0.00077     1.31860   
   407. RY*(   6) O  19                  0.00038     2.70735   
   408. RY*(   7) O  19                  0.00036     0.80294   
   409. RY*(   8) O  19                  0.00024     1.54914   
   410. RY*(   9) O  19                  0.00009     3.69008   
   411. RY*(  10) O  19                  0.00004     3.09729   
   412. RY*(  11) O  19                  0.00004     2.96578   
   413. RY*(  12) O  19                  0.00002     3.44473   
   414. RY*(  13) O  19                  0.00001     3.81623   
   415. RY*(  14) O  19                  0.00001     2.96871   
   416. RY*(  15) O  19                  0.00001     4.89398   
   417. RY*(  16) O  19                  0.00000    49.19190   
   418. RY*(  17) O  19                  0.00000     4.27800   
   419. RY*(   1) C  20                  0.01150     0.84659   
   420. RY*(   2) C  20                  0.00613     1.34503   
   421. RY*(   3) C  20                  0.00327     1.18955   
   422. RY*(   4) C  20                  0.00231     1.47252   
   423. RY*(   5) C  20                  0.00202     1.19857   
   424. RY*(   6) C  20                  0.00104     1.82443   
   425. RY*(   7) C  20                  0.00057     1.56039   
   426. RY*(   8) C  20                  0.00035     0.99567   
   427. RY*(   9) C  20                  0.00014     4.10133   
   428. RY*(  10) C  20                  0.00006     1.58112   
   429. RY*(  11) C  20                  0.00007     1.76988   
   430. RY*(  12) C  20                  0.00003     1.49377   
   431. RY*(  13) C  20                  0.00000    20.27082   
   432. RY*(  14) C  20                  0.00001     2.23315   
   433. RY*(  15) C  20                  0.00001     1.29063   
   434. RY*(  16) C  20                  0.00001     1.09539   
   435. RY*(  17) C  20                  0.00001     1.93487   
   436. RY*(   1) C  21                  0.00313     1.40676   
   437. RY*(   2) C  21                  0.00187     0.87941   
   438. RY*(   3) C  21                  0.00116     0.68631   
   439. RY*(   4) C  21                  0.00070     0.71939   
   440. RY*(   5) C  21                  0.00044     1.21493   
   441. RY*(   6) C  21                  0.00023     0.78443   
   442. RY*(   7) C  21                  0.00024     1.45853   
   443. RY*(   8) C  21                  0.00017     2.77563   
   444. RY*(   9) C  21                  0.00014     2.18561   
   445. RY*(  10) C  21                  0.00007     2.91952   
   446. RY*(  11) C  21                  0.00004     1.32577   
   447. RY*(  12) C  21                  0.00003     2.09956   
   448. RY*(  13) C  21                  0.00001     1.46632   
   449. RY*(  14) C  21                  0.00000     2.65087   
   450. RY*(  15) C  21                  0.00001     1.97560   
   451. RY*(  16) C  21                  0.00000    21.29445   
   452. RY*(  17) C  21                  0.00001     1.35584   
   453. RY*(   1) C  22                  0.00339     1.42783   
   454. RY*(   2) C  22                  0.00197     0.95661   
   455. RY*(   3) C  22                  0.00094     1.31797   
   456. RY*(   4) C  22                  0.00051     0.65378   
   457. RY*(   5) C  22                  0.00041     0.82470   
   458. RY*(   6) C  22                  0.00022     2.15770   
   459. RY*(   7) C  22                  0.00014     1.20715   
   460. RY*(   8) C  22                  0.00014     2.15824   
   461. RY*(   9) C  22                  0.00010     2.01276   
   462. RY*(  10) C  22                  0.00010     2.32354   
   463. RY*(  11) C  22                  0.00006     1.45684   
   464. RY*(  12) C  22                  0.00003     2.89330   
   465. RY*(  13) C  22                  0.00001     2.07047   
   466. RY*(  14) C  22                  0.00002     1.67202   
   467. RY*(  15) C  22                  0.00002     1.77121   
   468. RY*(  16) C  22                  0.00000     2.62561   
   469. RY*(  17) C  22                  0.00000    20.43784   
   470. RY*(   1)Cl  23                  0.00448     0.66024   
   471. RY*(   2)Cl  23                  0.00154     0.63668   
   472. RY*(   3)Cl  23                  0.00056     0.48490   
   473. RY*(   4)Cl  23                  0.00010     1.37037   
   474. RY*(   5)Cl  23                  0.00007     1.76981   
   475. RY*(   6)Cl  23                  0.00006     0.74572   
   476. RY*(   7)Cl  23                  0.00003     1.92222   
   477. RY*(   8)Cl  23                  0.00001     0.67742   
   478. RY*(   9)Cl  23                  0.00001     1.87695   
   479. RY*(  10)Cl  23                  0.00001     0.94444   
   480. RY*(  11)Cl  23                  0.00001     1.41336   
   481. RY*(  12)Cl  23                  0.00000    24.41053   
   482. RY*(  13)Cl  23                  0.00000    24.63692   
   483. RY*(  14)Cl  23                  0.00000    16.34609   
   484. RY*(  15)Cl  23                  0.00000     2.61304   
   485. RY*(  16)Cl  23                  0.00000    24.97452   
   486. RY*(  17)Cl  23                  0.00000   208.16861   
   487. RY*(  18)Cl  23                  0.00001     0.90895   
   488. RY*(  19)Cl  23                  0.00000     2.12727   
   489. RY*(  20)Cl  23                  0.00001     0.69327   
   490. RY*(  21)Cl  23                  0.00001     1.69682   
   491. RY*(   1) H  24                  0.00146     0.86220   
   492. RY*(   2) H  24                  0.00027     1.71014   
   493. RY*(   3) H  24                  0.00019     1.98131   
   494. RY*(   4) H  24                  0.00013     1.93692   
   495. RY*(   5) H  24                  0.00009     1.79407   
   496. RY*(   6) H  24                  0.00009     1.52219   
   497. RY*(   1) H  25                  0.00210     0.55212   
   498. RY*(   2) H  25                  0.00030     1.85639   
   499. RY*(   3) H  25                  0.00022     2.25478   
   500. RY*(   4) H  25                  0.00017     1.22165   
   501. RY*(   5) H  25                  0.00013     2.34398   
   502. RY*(   6) H  25                  0.00010     1.75792   
   503. RY*(   1) H  26                  0.00131     0.50106   
   504. RY*(   2) H  26                  0.00030     2.11589   
   505. RY*(   3) H  26                  0.00023     1.74740   
   506. RY*(   4) H  26                  0.00011     1.84995   
   507. RY*(   5) H  26                  0.00006     0.91610   
   508. RY*(   6) H  26                  0.00004     2.26268   
   509. RY*(   1) H  27                  0.00085     0.88458   
   510. RY*(   2) H  27                  0.00022     1.76326   
   511. RY*(   3) H  27                  0.00017     1.90712   
   512. RY*(   4) H  27                  0.00012     1.91505   
   513. RY*(   5) H  27                  0.00005     0.54546   
   514. RY*(   6) H  27                  0.00004     2.30441   
   515. RY*(   1) H  28                  0.00082     0.78251   
   516. RY*(   2) H  28                  0.00021     2.24584   
   517. RY*(   3) H  28                  0.00019     1.57647   
   518. RY*(   4) H  28                  0.00013     1.77420   
   519. RY*(   5) H  28                  0.00004     2.19769   
   520. RY*(   6) H  28                  0.00005     0.66916   
   521. RY*(   1) H  29                  0.00084     0.77859   
   522. RY*(   2) H  29                  0.00020     2.06206   
   523. RY*(   3) H  29                  0.00019     1.74788   
   524. RY*(   4) H  29                  0.00014     1.67864   
   525. RY*(   5) H  29                  0.00005     0.55258   
   526. RY*(   6) H  29                  0.00004     2.45282   
   527. RY*(   1) H  30                  0.00148     0.78414   
   528. RY*(   2) H  30                  0.00068     1.63969   
   529. RY*(   3) H  30                  0.00040     1.57312   
   530. RY*(   4) H  30                  0.00020     1.94152   
   531. RY*(   5) H  30                  0.00013     1.30517   
   532. RY*(   6) H  30                  0.00005     2.41324   
   533. RY*(   1) H  31                  0.00092     0.63471   
   534. RY*(   2) H  31                  0.00016     1.93405   
   535. RY*(   3) H  31                  0.00012     1.72499   
   536. RY*(   4) H  31                  0.00009     1.32128   
   537. RY*(   5) H  31                  0.00005     1.11791   
   538. RY*(   6) H  31                  0.00002     2.36574   
   539. RY*(   1) H  32                  0.00095     0.65635   
   540. RY*(   2) H  32                  0.00018     1.82269   
   541. RY*(   3) H  32                  0.00014     1.77045   
   542. RY*(   4) H  32                  0.00012     0.73867   
   543. RY*(   5) H  32                  0.00006     1.90522   
   544. RY*(   6) H  32                  0.00004     2.30006   
   545. RY*(   1) H  33                  0.00091     0.64651   
   546. RY*(   2) H  33                  0.00016     1.94228   
   547. RY*(   3) H  33                  0.00012     1.74313   
   548. RY*(   4) H  33                  0.00009     1.33327   
   549. RY*(   5) H  33                  0.00005     0.97144   
   550. RY*(   6) H  33                  0.00002     2.45464   
   551. RY*(   1) H  34                  0.00179     1.63870   
   552. RY*(   2) H  34                  0.00130     1.80809   
   553. RY*(   3) H  34                  0.00067     1.60716   
   554. RY*(   4) H  34                  0.00032     1.24888   
   555. RY*(   5) H  34                  0.00014     0.42101   
   556. RY*(   6) H  34                  0.00002     2.54465   
   557. RY*(   1) H  35                  0.00050     0.61969   
   558. RY*(   2) H  35                  0.00030     2.29011   
   559. RY*(   3) H  35                  0.00019     1.58372   
   560. RY*(   4) H  35                  0.00012     1.33886   
   561. RY*(   5) H  35                  0.00008     0.92223   
   562. RY*(   6) H  35                  0.00004     2.46533   
   563. RY*(   1) H  36                  0.00078     1.45489   
   564. RY*(   2) H  36                  0.00025     1.62141   
   565. RY*(   3) H  36                  0.00015     1.60053   
   566. RY*(   4) H  36                  0.00012     1.99660   
   567. RY*(   5) H  36                  0.00004     2.35859   
   568. RY*(   6) H  36                  0.00005     0.26825   
   569. BD*(   1) C   1 - C   2          0.02721     0.54242   
   570. BD*(   2) C   1 - C   2          0.39721    -0.00038  576(v),581(v),94(g),587(r)
                                                    585(v),584(v),128(v),112(g)
   571. BD*(   1) C   1 - C   6          0.01385     0.55961   
   572. BD*(   1) C   1 - H  26          0.01319     0.41484   
   573. BD*(   1) C   2 - C   3          0.02507     0.54417   
   574. BD*(   1) C   2 - N   7          0.03009     0.37813   
   575. BD*(   1) C   3 - C   4          0.01353     0.56105   
   576. BD*(   2) C   3 - C   4          0.32466     0.00904  581(v),570(v),145(g),128(g)
                                                    146(g),129(g)
   577. BD*(   1) C   3 - H  27          0.01269     0.41624   
   578. BD*(   1) C   4 - C   5          0.02390     0.56032   
   579. BD*(   1) C   4 - H  28          0.01392     0.42239   
   580. BD*(   1) C   5 - C   6          0.02389     0.56055   
   581. BD*(   2) C   5 - C   6          0.34004     0.01690  576(v),570(v),179(g),598(v)
                                                    145(v),597(v)
   582. BD*(   1) C   5 - C  15          0.01568     0.40354   
   583. BD*(   1) C   6 - H  29          0.01409     0.42028   
   584. BD*(   1) N   7 - C   8          0.02727     0.45980   
   585. BD*(   1) N   7 - H  30          0.02237     0.36344   
   586. BD*(   1) C   8 - C   9          0.02688     0.58692   
   587. BD*(   2) C   8 - C   9          0.31174    -0.00265  596(v),230(g),592(v),593(v)
                                                    214(g),570(r),296(v),194(v)
   588. BD*(   1) C   8 - C  10          0.03612     0.35619   
   589. BD*(   1) C   9 - C  11          0.07888     0.43679   
   590. BD*(   1) C   9 -Cl  13          0.02764     0.14588   
   591. BD*(   1) C  10 - O  12          0.02825     0.24292   
   592. BD*(   1) C  10 - C  16          0.05012     0.31977   
   593. BD*(   1) C  10 - H  24          0.02766     0.36934   
   594. BD*(   1) C  11 - O  12          0.12393     0.30072  591(g),588(v),263(g),590(v)
                                                    592(v),586(v),289(g),269(g)
                                                    271(g)
   595. BD*(   1) C  11 - O  14          0.01267     0.63358   
   596. BD*(   2) C  11 - O  14          0.28759     0.00951  587(v),264(g),318(g)
   597. BD*(   1) C  15 - H  31          0.00536     0.38825   
   598. BD*(   1) C  15 - H  32          0.01019     0.38531   
   599. BD*(   1) C  15 - H  33          0.00522     0.38868   
   600. BD*(   1) C  16 - C  17          0.03616     0.39788   
   601. BD*(   1) C  16 - O  18          0.03961     0.26214   
   602. BD*(   1) C  16 - H  25          0.02453     0.36933   
   603. BD*(   1) C  17 - O  19          0.03255     0.31556   
   604. BD*(   1) C  17 - C  22          0.02064     0.58711   
   605. BD*(   2) C  17 - C  22          0.27139     0.01373  609(v),601(v),457(g),370(g)
   606. BD*(   1) O  18 - H  34          0.00914     0.41406   
   607. BD*(   1) O  19 - C  20          0.05147     0.33148   
   608. BD*(   1) C  20 - C  21          0.02603     0.57436   
   609. BD*(   2) C  20 - C  21          0.31761    -0.00720  605(v),440(g),438(g),422(g)
                                                    470(v)
   610. BD*(   1) C  20 -Cl  23          0.03414     0.14253   
   611. BD*(   1) C  21 - C  22          0.01114     0.49770   
   612. BD*(   1) C  21 - H  35          0.01165     0.42632   
   613. BD*(   1) C  22 - H  36          0.01214     0.44356   
       -------------------------------
              Total Lewis  178.37318  ( 98.0072%)
        Valence non-Lewis    3.26907  (  1.7962%)
        Rydberg non-Lewis    0.35775  (  0.1966%)
       -------------------------------
            Total unit  1  182.00000  (100.0000%)
           Charge unit  1    0.00000
 Leave Link  607 at Wed Jul 10 06:21:22 2019, MaxMem=  209715200 cpu:      10.0
 (Enter C:\G09W\l9999.exe)
 1|1|UNPC-CCSC-2005544|FOpt|RB3LYP|6-311++G(d,p)|C16H13Cl2N1O4|EDUARDO.
 MELO|10-Jul-2019|0||#p opt b3lyp/6-311++g(d,p) pop=nbo geom=connectivi
 ty||9x.log||0,1|C,0.8265570004,2.4005753447,-1.1069034035|C,1.33550618
 62,2.1269953492,0.16495147|C,1.0025725467,2.9695457798,1.2284512201|C,
 0.1628907999,4.0588827912,1.0195054551|C,-0.3836005151,4.3269734853,-0
 .2404799079|C,-0.0330787877,3.4790720526,-1.2962979403|N,2.2224050506,
 1.0378101117,0.3911081608|C,2.0790586804,-0.2455076015,-0.0184044967|C
 ,3.0067659042,-1.2300862278,0.0333924614|C,0.7946540002,-0.8558841416,
 -0.5429946637|C,2.4492375543,-2.4893348015,-0.4354886827|O,1.127168023
 7,-2.2296643182,-0.7967653798|Cl,4.631832289,-1.067420862,0.6001840991
 |O,2.9265958539,-3.582469704,-0.5398883901|C,-1.3348979483,5.479183413
 9,-0.4493603659|C,-0.3819048078,-0.791231686,0.4578319593|C,-1.6376334
 336,-1.3518690592,-0.1318254346|O,-0.0328669434,-1.3962718303,1.698970
 2544|O,-2.8072450672,-0.7693746875,0.3092088146|C,-3.8201774359,-1.441
 6732918,-0.2803578121|C,-3.3610664797,-2.4340082572,-1.0859485211|C,-1
 .9327579146,-2.3725126813,-0.9846879386|Cl,-5.4084772373,-0.9094042288
 ,0.0890422807|H,0.4842206145,-0.4084935456,-1.4894554038|H,-0.56498621
 21,0.2588058099,0.6941638306|H,1.1245342112,1.7924731347,-1.9527361209
 |H,1.3928569923,2.7617527815,2.2186690153|H,-0.0823618295,4.7035103718
 ,1.8570057163|H,-0.4190624229,3.6760101552,-2.2910752875|H,3.072021854
 7,1.2380104761,0.9023153065|H,-1.2594953516,5.8794343002,-1.4629047502
 |H,-2.3722734603,5.1611897376,-0.2990075938|H,-1.1367773744,6.29209406
 78,0.2525678729|H,0.0230681528,-2.3503334917,1.5633218443|H,-3.9577130
 406,-3.1140088418,-1.670499637|H,-1.2156524531,-3.0107279055,-1.475079
 0312||Version=IA32W-G09RevA.02|State=1-A|HF=-1893.8633163|RMSD=7.494e-
 009|RMSF=1.484e-006|Dipole=-0.8474627,2.4202318,-0.3846278|Quadrupole=
 -6.5808497,2.4095993,4.1712504,11.3328678,5.3816128,0.9477149|PG=C01 [
 X(C16H13Cl2N1O4)]||@


 IT IS DOUBTED WHETHER A MAN EVER BRINGS HIS FACULTIES TO BEAR WITH THEIR FULL FORCE
 ON A SUBJECT UNTIL HE WRITES UPON IT.

                          -- CICERO
 Job cpu time:  0 days 13 hours 22 minutes 38.0 seconds.
 File lengths (MBytes):  RWF=    227 Int=      0 D2E=      0 Chk=     22 Scr=      1
 Normal termination of Gaussian 09 at Wed Jul 10 06:21:23 2019.
