 Entering Link 1 = C:\G09W\l1.exe PID=      3488.
  
 Copyright (c) 1988,1990,1992,1993,1995,1998,2003,2009, Gaussian, Inc.
                  All Rights Reserved.
  
 This is part of the Gaussian(R) 09 program.  It is based on
 the Gaussian(R) 03 system (copyright 2003, Gaussian, Inc.),
 the Gaussian(R) 98 system (copyright 1998, Gaussian, Inc.),
 the Gaussian(R) 94 system (copyright 1995, Gaussian, Inc.),
 the Gaussian 92(TM) system (copyright 1992, Gaussian, Inc.),
 the Gaussian 90(TM) system (copyright 1990, Gaussian, Inc.),
 the Gaussian 88(TM) system (copyright 1988, Gaussian, Inc.),
 the Gaussian 86(TM) system (copyright 1986, Carnegie Mellon
 University), and the Gaussian 82(TM) system (copyright 1983,
 Carnegie Mellon University). Gaussian is a federally registered
 trademark of Gaussian, Inc.
  
 This software contains proprietary and confidential information,
 including trade secrets, belonging to Gaussian, Inc.
  
 This software is provided under written license and may be
 used, copied, transmitted, or stored only in accord with that
 written license.
  
 The following legend is applicable only to US Government
 contracts under FAR:
  
                    RESTRICTED RIGHTS LEGEND
  
 Use, reproduction and disclosure by the US Government is
 subject to restrictions as set forth in subparagraphs (a)
 and (c) of the Commercial Computer Software - Restricted
 Rights clause in FAR 52.227-19.
  
 Gaussian, Inc.
 340 Quinnipiac St., Bldg. 40, Wallingford CT 06492
  
  
 ---------------------------------------------------------------
 Warning -- This program may not be used in any manner that
 competes with the business of Gaussian, Inc. or will provide
 assistance to any competitor of Gaussian, Inc.  The licensee
 of this program is prohibited from giving any competitor of
 Gaussian, Inc. access to this program.  By using this program,
 the user acknowledges that Gaussian, Inc. is engaged in the
 business of creating and licensing software in the field of
 computational chemistry and represents and warrants to the
 licensee that it is not a competitor of Gaussian, Inc. and that
 it will not use this program in any manner prohibited above.
 ---------------------------------------------------------------
  

 Cite this work as:
 Gaussian 09, Revision A.02,
 M. J. Frisch, G. W. Trucks, H. B. Schlegel, G. E. Scuseria, 
 M. A. Robb, J. R. Cheeseman, G. Scalmani, V. Barone, B. Mennucci, 
 G. A. Petersson, H. Nakatsuji, M. Caricato, X. Li, H. P. Hratchian, 
 A. F. Izmaylov, J. Bloino, G. Zheng, J. L. Sonnenberg, M. Hada, 
 M. Ehara, K. Toyota, R. Fukuda, J. Hasegawa, M. Ishida, T. Nakajima, 
 Y. Honda, O. Kitao, H. Nakai, T. Vreven, J. A. Montgomery, Jr., 
 J. E. Peralta, F. Ogliaro, M. Bearpark, J. J. Heyd, E. Brothers, 
 K. N. Kudin, V. N. Staroverov, R. Kobayashi, J. Normand, 
 K. Raghavachari, A. Rendell, J. C. Burant, S. S. Iyengar, J. Tomasi, 
 M. Cossi, N. Rega, J. M. Millam, M. Klene, J. E. Knox, J. B. Cross, 
 V. Bakken, C. Adamo, J. Jaramillo, R. Gomperts, R. E. Stratmann, 
 O. Yazyev, A. J. Austin, R. Cammi, C. Pomelli, J. W. Ochterski, 
 R. L. Martin, K. Morokuma, V. G. Zakrzewski, G. A. Voth, 
 P. Salvador, J. J. Dannenberg, S. Dapprich, A. D. Daniels, 
 O. Farkas, J. B. Foresman, J. V. Ortiz, J. Cioslowski, 
 and D. J. Fox, Gaussian, Inc., Wallingford CT, 2009.
 
 ******************************************
 Gaussian 09:  IA32W-G09RevA.02 11-Jun-2009
                10-Jul-2019 
 ******************************************
 %nprocshared=4
 Will use up to    4 processors via shared memory.
 %mem=1600MB
 ----------------------------------------------------
 #p opt b3lyp/6-311++g(d,p) pop=nbo geom=connectivity
 ----------------------------------------------------
 1/14=-1,18=20,19=15,26=3,38=1,57=2/1,3;
 2/9=110,12=2,17=6,18=5,40=1/2;
 3/5=4,6=6,7=1111,11=2,16=1,25=1,30=1,71=1,74=-5/1,2,3;
 4//1;
 5/5=2,38=5/2;
 6/7=2,8=2,9=2,10=2,28=1/1,7;
 7//1,2,3,16;
 1/14=-1,18=20,19=15/3(2);
 2/9=110/2;
 99//99;
 2/9=110/2;
 3/5=4,6=6,7=1111,11=2,16=1,25=1,30=1,71=1,74=-5/1,2,3;
 4/5=5,16=3/1;
 5/5=2,38=5/2;
 7//1,2,3,16;
 1/14=-1,18=20,19=15/3(-5);
 2/9=110/2;
 6/7=2,8=2,9=2,10=2,19=2,28=1/1,7;
 99/9=1/99;
 Leave Link    1 at Wed Jul 10 06:21:23 2019, MaxMem=  209715200 cpu:       0.0
 (Enter C:\G09W\l101.exe)
 ------
 9y.log
 ------
 Symbolic Z-matrix:
 Charge =  0 Multiplicity = 1
 C                    -1.10862  -2.34379   0.99286 
 C                    -1.76102  -1.45451   0.13743 
 C                    -2.13149  -1.86887  -1.14341 
 C                    -1.84864  -3.16164  -1.56961 
 C                    -1.20657  -4.02329  -0.70059 
 C                    -0.83013  -3.63911   0.57318 
 N                    -2.09721  -0.1566    0.59962 
 C                    -1.53068   0.99645   0.18726 
 C                    -1.98286   2.23958   0.34909 
 C                    -0.17277   1.08649  -0.47827 
 C                    -1.01084   3.19395  -0.17275 
 O                     0.01741   2.46917  -0.66654 
 Cl                   -3.46914   2.71257   1.07201 
 O                    -1.03943   4.37217  -0.2173 
 C                     0.9538    0.48425   0.37073 
 C                     2.31563   0.7878   -0.17446 
 O                     0.88128   0.91189   1.69927 
 O                     3.23474  -0.18733   0.06035 
 C                     4.38951   0.23998  -0.4447 
 C                     4.27415   1.44661  -1.00566 
 C                     2.89205   1.80893  -0.82286 
 Cl                    5.72604  -0.81124  -0.28495 
 O                    -2.74498  -0.94455  -1.89291 
 O                    -0.76708  -1.85638   2.19722 
 C                    -0.1318   -2.68797   3.13959 
 C                    -3.18601  -1.26071  -3.18965 
 H                    -0.18691   0.60785  -1.45067 
 H                     0.84684  -0.59237   0.31857 
 H                    -2.12201  -3.49594  -2.55017 
 H                    -0.98792  -5.02439  -1.02708 
 H                    -0.32689  -4.33523   1.21316 
 H                    -2.99412  -0.05683   1.02191 
 H                     0.25406   0.37635   2.16158 
 H                     5.04821   2.01038  -1.48074 
 H                     2.41466   2.7145   -1.12646 
 H                     0.83062  -3.02924   2.77608 
 H                     0.01415  -2.08141   4.02025 
 H                    -0.75361  -3.53985   3.38964 
 H                    -2.35572  -1.5319   -3.83246 
 H                    -3.91099  -2.06687  -3.17134 
 H                    -3.65478  -0.36604  -3.56947 
 
 NAtoms=     41 NQM=     41 NQMF=      0 NMic=      0 NMicF=      0 NTot=     41.
                    Isotopes and Nuclear Properties:
 (Nuclear quadrupole moments (NQMom) in fm**2, nuclear magnetic moments (NMagM)
  in nuclear magnetons)

  Atom         1           2           3           4           5           6           7           8           9          10
 IAtWgt=          12          12          12          12          12          12          14          12          12          12
 AtmWgt=  12.0000000  12.0000000  12.0000000  12.0000000  12.0000000  12.0000000  14.0030740  12.0000000  12.0000000  12.0000000
 NucSpn=           0           0           0           0           0           0           2           0           0           0
 AtZEff=   0.0000000   0.0000000   0.0000000   0.0000000   0.0000000   0.0000000   0.0000000   0.0000000   0.0000000   0.0000000
 NQMom=    0.0000000   0.0000000   0.0000000   0.0000000   0.0000000   0.0000000   2.0440000   0.0000000   0.0000000   0.0000000
 NMagM=    0.0000000   0.0000000   0.0000000   0.0000000   0.0000000   0.0000000   0.4037610   0.0000000   0.0000000   0.0000000

  Atom        11          12          13          14          15          16          17          18          19          20
 IAtWgt=          12          16          35          16          12          12          16          16          12          12
 AtmWgt=  12.0000000  15.9949146  34.9688527  15.9949146  12.0000000  12.0000000  15.9949146  15.9949146  12.0000000  12.0000000
 NucSpn=           0           0           3           0           0           0           0           0           0           0
 AtZEff=   0.0000000   0.0000000   0.0000000   0.0000000   0.0000000   0.0000000   0.0000000   0.0000000   0.0000000   0.0000000
 NQMom=    0.0000000   0.0000000  -8.1650000   0.0000000   0.0000000   0.0000000   0.0000000   0.0000000   0.0000000   0.0000000
 NMagM=    0.0000000   0.0000000   0.8218740   0.0000000   0.0000000   0.0000000   0.0000000   0.0000000   0.0000000   0.0000000

  Atom        21          22          23          24          25          26          27          28          29          30
 IAtWgt=          12          35          16          16          12          12           1           1           1           1
 AtmWgt=  12.0000000  34.9688527  15.9949146  15.9949146  12.0000000  12.0000000   1.0078250   1.0078250   1.0078250   1.0078250
 NucSpn=           0           3           0           0           0           0           1           1           1           1
 AtZEff=   0.0000000   0.0000000   0.0000000   0.0000000   0.0000000   0.0000000   0.0000000   0.0000000   0.0000000   0.0000000
 NQMom=    0.0000000  -8.1650000   0.0000000   0.0000000   0.0000000   0.0000000   0.0000000   0.0000000   0.0000000   0.0000000
 NMagM=    0.0000000   0.8218740   0.0000000   0.0000000   0.0000000   0.0000000   2.7928460   2.7928460   2.7928460   2.7928460

  Atom        31          32          33          34          35          36          37          38          39          40
 IAtWgt=           1           1           1           1           1           1           1           1           1           1
 AtmWgt=   1.0078250   1.0078250   1.0078250   1.0078250   1.0078250   1.0078250   1.0078250   1.0078250   1.0078250   1.0078250
 NucSpn=           1           1           1           1           1           1           1           1           1           1
 AtZEff=   0.0000000   0.0000000   0.0000000   0.0000000   0.0000000   0.0000000   0.0000000   0.0000000   0.0000000   0.0000000
 NQMom=    0.0000000   0.0000000   0.0000000   0.0000000   0.0000000   0.0000000   0.0000000   0.0000000   0.0000000   0.0000000
 NMagM=    2.7928460   2.7928460   2.7928460   2.7928460   2.7928460   2.7928460   2.7928460   2.7928460   2.7928460   2.7928460

  Atom        41
 IAtWgt=           1
 AtmWgt=   1.0078250
 NucSpn=           1
 AtZEff=   0.0000000
 NQMom=    0.0000000
 NMagM=    2.7928460
 Leave Link  101 at Wed Jul 10 06:21:23 2019, MaxMem=  209715200 cpu:       0.0
 (Enter C:\G09W\l103.exe)

 GradGradGradGradGradGradGradGradGradGradGradGradGradGradGradGradGradGrad
 Berny optimization.
 Initialization pass.
                           ----------------------------
                           !    Initial Parameters    !
                           ! (Angstroms and Degrees)  !
 --------------------------                            --------------------------
 ! Name  Definition              Value          Derivative Info.                !
 --------------------------------------------------------------------------------
 ! R1    R(1,2)                  1.3958         estimate D2E/DX2                !
 ! R2    R(1,6)                  1.3898         estimate D2E/DX2                !
 ! R3    R(1,24)                 1.3434         estimate D2E/DX2                !
 ! R4    R(2,3)                  1.3962         estimate D2E/DX2                !
 ! R5    R(2,7)                  1.4182         estimate D2E/DX2                !
 ! R6    R(3,4)                  1.3903         estimate D2E/DX2                !
 ! R7    R(3,23)                 1.3388         estimate D2E/DX2                !
 ! R8    R(4,5)                  1.382          estimate D2E/DX2                !
 ! R9    R(4,29)                 1.0714         estimate D2E/DX2                !
 ! R10   R(5,6)                  1.3827         estimate D2E/DX2                !
 ! R11   R(5,30)                 1.0755         estimate D2E/DX2                !
 ! R12   R(6,31)                 1.0712         estimate D2E/DX2                !
 ! R13   R(7,8)                  1.3493         estimate D2E/DX2                !
 ! R14   R(7,32)                 0.9964         estimate D2E/DX2                !
 ! R15   R(8,9)                  1.3327         estimate D2E/DX2                !
 ! R16   R(8,10)                 1.5149         estimate D2E/DX2                !
 ! R17   R(9,11)                 1.4588         estimate D2E/DX2                !
 ! R18   R(9,13)                 1.7191         estimate D2E/DX2                !
 ! R19   R(10,12)                1.4083         estimate D2E/DX2                !
 ! R20   R(10,15)                1.5338         estimate D2E/DX2                !
 ! R21   R(10,27)                1.0839         estimate D2E/DX2                !
 ! R22   R(11,12)                1.3515         estimate D2E/DX2                !
 ! R23   R(11,14)                1.1794         estimate D2E/DX2                !
 ! R24   R(15,16)                1.498          estimate D2E/DX2                !
 ! R25   R(15,17)                1.3976         estimate D2E/DX2                !
 ! R26   R(15,28)                1.0832         estimate D2E/DX2                !
 ! R27   R(16,18)                1.3604         estimate D2E/DX2                !
 ! R28   R(16,21)                1.3399         estimate D2E/DX2                !
 ! R29   R(17,33)                0.9455         estimate D2E/DX2                !
 ! R30   R(18,19)                1.3308         estimate D2E/DX2                !
 ! R31   R(19,20)                1.3356         estimate D2E/DX2                !
 ! R32   R(19,22)                1.7079         estimate D2E/DX2                !
 ! R33   R(20,21)                1.4404         estimate D2E/DX2                !
 ! R34   R(20,34)                1.069          estimate D2E/DX2                !
 ! R35   R(21,35)                1.0678         estimate D2E/DX2                !
 ! R36   R(23,26)                1.4057         estimate D2E/DX2                !
 ! R37   R(24,25)                1.4083         estimate D2E/DX2                !
 ! R38   R(25,36)                1.0839         estimate D2E/DX2                !
 ! R39   R(25,37)                1.0792         estimate D2E/DX2                !
 ! R40   R(25,38)                1.0839         estimate D2E/DX2                !
 ! R41   R(26,39)                1.0845         estimate D2E/DX2                !
 ! R42   R(26,40)                1.0843         estimate D2E/DX2                !
 ! R43   R(26,41)                1.0791         estimate D2E/DX2                !
 ! A1    A(2,1,6)              120.1586         estimate D2E/DX2                !
 ! A2    A(2,1,24)             115.9203         estimate D2E/DX2                !
 ! A3    A(6,1,24)             123.9127         estimate D2E/DX2                !
 ! A4    A(1,2,3)              119.8119         estimate D2E/DX2                !
 ! A5    A(1,2,7)              119.6142         estimate D2E/DX2                !
 ! A6    A(3,2,7)              120.5089         estimate D2E/DX2                !
 ! A7    A(2,3,4)              120.2111         estimate D2E/DX2                !
 ! A8    A(2,3,23)             115.4824         estimate D2E/DX2                !
 ! A9    A(4,3,23)             124.3038         estimate D2E/DX2                !
 ! A10   A(3,4,5)              118.7837         estimate D2E/DX2                !
 ! A11   A(3,4,29)             121.2495         estimate D2E/DX2                !
 ! A12   A(5,4,29)             119.9664         estimate D2E/DX2                !
 ! A13   A(4,5,6)              122.1775         estimate D2E/DX2                !
 ! A14   A(4,5,30)             118.9423         estimate D2E/DX2                !
 ! A15   A(6,5,30)             118.8794         estimate D2E/DX2                !
 ! A16   A(1,6,5)              118.8555         estimate D2E/DX2                !
 ! A17   A(1,6,31)             121.2924         estimate D2E/DX2                !
 ! A18   A(5,6,31)             119.8507         estimate D2E/DX2                !
 ! A19   A(2,7,8)              125.6593         estimate D2E/DX2                !
 ! A20   A(2,7,32)             116.3063         estimate D2E/DX2                !
 ! A21   A(8,7,32)             114.9567         estimate D2E/DX2                !
 ! A22   A(7,8,9)              128.1387         estimate D2E/DX2                !
 ! A23   A(7,8,10)             124.1546         estimate D2E/DX2                !
 ! A24   A(9,8,10)             107.5804         estimate D2E/DX2                !
 ! A25   A(8,9,11)             109.9221         estimate D2E/DX2                !
 ! A26   A(8,9,13)             126.9461         estimate D2E/DX2                !
 ! A27   A(11,9,13)            123.1283         estimate D2E/DX2                !
 ! A28   A(8,10,12)            103.776          estimate D2E/DX2                !
 ! A29   A(8,10,15)            113.0697         estimate D2E/DX2                !
 ! A30   A(8,10,27)            110.8662         estimate D2E/DX2                !
 ! A31   A(12,10,15)           111.1183         estimate D2E/DX2                !
 ! A32   A(12,10,27)           108.3835         estimate D2E/DX2                !
 ! A33   A(15,10,27)           109.4367         estimate D2E/DX2                !
 ! A34   A(9,11,12)            106.6676         estimate D2E/DX2                !
 ! A35   A(9,11,14)            130.6121         estimate D2E/DX2                !
 ! A36   A(12,11,14)           122.7111         estimate D2E/DX2                !
 ! A37   A(10,12,11)           112.0207         estimate D2E/DX2                !
 ! A38   A(10,15,16)           112.7493         estimate D2E/DX2                !
 ! A39   A(10,15,17)           111.5874         estimate D2E/DX2                !
 ! A40   A(10,15,28)           106.9225         estimate D2E/DX2                !
 ! A41   A(16,15,17)           109.3386         estimate D2E/DX2                !
 ! A42   A(16,15,28)           105.8821         estimate D2E/DX2                !
 ! A43   A(17,15,28)           110.1695         estimate D2E/DX2                !
 ! A44   A(15,16,18)           113.9617         estimate D2E/DX2                !
 ! A45   A(15,16,21)           136.19           estimate D2E/DX2                !
 ! A46   A(18,16,21)           109.8237         estimate D2E/DX2                !
 ! A47   A(15,17,33)           109.0213         estimate D2E/DX2                !
 ! A48   A(16,18,19)           106.8921         estimate D2E/DX2                !
 ! A49   A(18,19,20)           111.9938         estimate D2E/DX2                !
 ! A50   A(18,19,22)           116.481          estimate D2E/DX2                !
 ! A51   A(20,19,22)           131.5236         estimate D2E/DX2                !
 ! A52   A(19,20,21)           104.8811         estimate D2E/DX2                !
 ! A53   A(19,20,34)           126.9102         estimate D2E/DX2                !
 ! A54   A(21,20,34)           128.2085         estimate D2E/DX2                !
 ! A55   A(16,21,20)           106.4086         estimate D2E/DX2                !
 ! A56   A(16,21,35)           126.2686         estimate D2E/DX2                !
 ! A57   A(20,21,35)           127.317          estimate D2E/DX2                !
 ! A58   A(3,23,26)            120.3249         estimate D2E/DX2                !
 ! A59   A(1,24,25)            120.0244         estimate D2E/DX2                !
 ! A60   A(24,25,36)           111.2261         estimate D2E/DX2                !
 ! A61   A(24,25,37)           105.9723         estimate D2E/DX2                !
 ! A62   A(24,25,38)           111.0803         estimate D2E/DX2                !
 ! A63   A(36,25,37)           109.3014         estimate D2E/DX2                !
 ! A64   A(36,25,38)           109.8337         estimate D2E/DX2                !
 ! A65   A(37,25,38)           109.3323         estimate D2E/DX2                !
 ! A66   A(23,26,39)           111.2737         estimate D2E/DX2                !
 ! A67   A(23,26,40)           111.1863         estimate D2E/DX2                !
 ! A68   A(23,26,41)           105.9333         estimate D2E/DX2                !
 ! A69   A(39,26,40)           109.6312         estimate D2E/DX2                !
 ! A70   A(39,26,41)           109.3463         estimate D2E/DX2                !
 ! A71   A(40,26,41)           109.3836         estimate D2E/DX2                !
 ! D1    D(6,1,2,3)             -0.12           estimate D2E/DX2                !
 ! D2    D(6,1,2,7)            176.9637         estimate D2E/DX2                !
 ! D3    D(24,1,2,3)           178.8623         estimate D2E/DX2                !
 ! D4    D(24,1,2,7)            -4.054          estimate D2E/DX2                !
 ! D5    D(2,1,6,5)              0.1875         estimate D2E/DX2                !
 ! D6    D(2,1,6,31)           179.7509         estimate D2E/DX2                !
 ! D7    D(24,1,6,5)          -178.7095         estimate D2E/DX2                !
 ! D8    D(24,1,6,31)            0.8539         estimate D2E/DX2                !
 ! D9    D(2,1,24,25)          178.5773         estimate D2E/DX2                !
 ! D10   D(6,1,24,25)           -2.4831         estimate D2E/DX2                !
 ! D11   D(1,2,3,4)             -0.2114         estimate D2E/DX2                !
 ! D12   D(1,2,3,23)          -179.6425         estimate D2E/DX2                !
 ! D13   D(7,2,3,4)           -177.2686         estimate D2E/DX2                !
 ! D14   D(7,2,3,23)             3.3003         estimate D2E/DX2                !
 ! D15   D(1,2,7,8)            110.5055         estimate D2E/DX2                !
 ! D16   D(1,2,7,32)           -90.4267         estimate D2E/DX2                !
 ! D17   D(3,2,7,8)            -72.4315         estimate D2E/DX2                !
 ! D18   D(3,2,7,32)            86.6363         estimate D2E/DX2                !
 ! D19   D(2,3,4,5)              0.4654         estimate D2E/DX2                !
 ! D20   D(2,3,4,29)          -179.7663         estimate D2E/DX2                !
 ! D21   D(23,3,4,5)           179.8437         estimate D2E/DX2                !
 ! D22   D(23,3,4,29)           -0.388          estimate D2E/DX2                !
 ! D23   D(2,3,23,26)         -178.7108         estimate D2E/DX2                !
 ! D24   D(4,3,23,26)            1.8843         estimate D2E/DX2                !
 ! D25   D(3,4,5,6)             -0.4031         estimate D2E/DX2                !
 ! D26   D(3,4,5,30)           179.9039         estimate D2E/DX2                !
 ! D27   D(29,4,5,6)           179.8255         estimate D2E/DX2                !
 ! D28   D(29,4,5,30)            0.1325         estimate D2E/DX2                !
 ! D29   D(4,5,6,1)              0.077          estimate D2E/DX2                !
 ! D30   D(4,5,6,31)          -179.4928         estimate D2E/DX2                !
 ! D31   D(30,5,6,1)           179.7702         estimate D2E/DX2                !
 ! D32   D(30,5,6,31)            0.2004         estimate D2E/DX2                !
 ! D33   D(2,7,8,9)            163.8078         estimate D2E/DX2                !
 ! D34   D(2,7,8,10)           -20.7958         estimate D2E/DX2                !
 ! D35   D(32,7,8,9)             4.4939         estimate D2E/DX2                !
 ! D36   D(32,7,8,10)          179.8903         estimate D2E/DX2                !
 ! D37   D(7,8,9,11)           176.1416         estimate D2E/DX2                !
 ! D38   D(7,8,9,13)            -3.1969         estimate D2E/DX2                !
 ! D39   D(10,8,9,11)            0.1367         estimate D2E/DX2                !
 ! D40   D(10,8,9,13)         -179.2018         estimate D2E/DX2                !
 ! D41   D(7,8,10,12)         -177.3589         estimate D2E/DX2                !
 ! D42   D(7,8,10,15)          -56.8524         estimate D2E/DX2                !
 ! D43   D(7,8,10,27)           66.4754         estimate D2E/DX2                !
 ! D44   D(9,8,10,12)           -1.1558         estimate D2E/DX2                !
 ! D45   D(9,8,10,15)          119.3507         estimate D2E/DX2                !
 ! D46   D(9,8,10,27)         -117.3215         estimate D2E/DX2                !
 ! D47   D(8,9,11,12)            0.9912         estimate D2E/DX2                !
 ! D48   D(8,9,11,14)          179.8829         estimate D2E/DX2                !
 ! D49   D(13,9,11,12)        -179.6401         estimate D2E/DX2                !
 ! D50   D(13,9,11,14)          -0.7484         estimate D2E/DX2                !
 ! D51   D(8,10,12,11)           1.8418         estimate D2E/DX2                !
 ! D52   D(15,10,12,11)       -119.9747         estimate D2E/DX2                !
 ! D53   D(27,10,12,11)        119.7425         estimate D2E/DX2                !
 ! D54   D(8,10,15,16)        -169.8958         estimate D2E/DX2                !
 ! D55   D(8,10,15,17)         -46.3856         estimate D2E/DX2                !
 ! D56   D(8,10,15,28)          74.1435         estimate D2E/DX2                !
 ! D57   D(12,10,15,16)        -53.6667         estimate D2E/DX2                !
 ! D58   D(12,10,15,17)         69.8435         estimate D2E/DX2                !
 ! D59   D(12,10,15,28)       -169.6274         estimate D2E/DX2                !
 ! D60   D(27,10,15,16)         65.9904         estimate D2E/DX2                !
 ! D61   D(27,10,15,17)       -170.4994         estimate D2E/DX2                !
 ! D62   D(27,10,15,28)        -49.9703         estimate D2E/DX2                !
 ! D63   D(9,11,12,10)          -1.8028         estimate D2E/DX2                !
 ! D64   D(14,11,12,10)        179.1971         estimate D2E/DX2                !
 ! D65   D(10,15,16,18)       -148.1885         estimate D2E/DX2                !
 ! D66   D(10,15,16,21)         33.8566         estimate D2E/DX2                !
 ! D67   D(17,15,16,18)         87.0632         estimate D2E/DX2                !
 ! D68   D(17,15,16,21)        -90.8918         estimate D2E/DX2                !
 ! D69   D(28,15,16,18)        -31.6073         estimate D2E/DX2                !
 ! D70   D(28,15,16,21)        150.4377         estimate D2E/DX2                !
 ! D71   D(10,15,17,33)         82.5417         estimate D2E/DX2                !
 ! D72   D(16,15,17,33)       -152.0359         estimate D2E/DX2                !
 ! D73   D(28,15,17,33)        -36.067          estimate D2E/DX2                !
 ! D74   D(15,16,18,19)       -178.2899         estimate D2E/DX2                !
 ! D75   D(21,16,18,19)          0.2054         estimate D2E/DX2                !
 ! D76   D(15,16,21,20)        177.9367         estimate D2E/DX2                !
 ! D77   D(15,16,21,35)         -1.2383         estimate D2E/DX2                !
 ! D78   D(18,16,21,20)         -0.0768         estimate D2E/DX2                !
 ! D79   D(18,16,21,35)       -179.2518         estimate D2E/DX2                !
 ! D80   D(16,18,19,20)         -0.2646         estimate D2E/DX2                !
 ! D81   D(16,18,19,22)       -179.8644         estimate D2E/DX2                !
 ! D82   D(18,19,20,21)          0.2137         estimate D2E/DX2                !
 ! D83   D(18,19,20,34)       -179.9531         estimate D2E/DX2                !
 ! D84   D(22,19,20,21)        179.7353         estimate D2E/DX2                !
 ! D85   D(22,19,20,34)         -0.4315         estimate D2E/DX2                !
 ! D86   D(19,20,21,16)         -0.0792         estimate D2E/DX2                !
 ! D87   D(19,20,21,35)        179.0845         estimate D2E/DX2                !
 ! D88   D(34,20,21,16)       -179.9095         estimate D2E/DX2                !
 ! D89   D(34,20,21,35)         -0.7458         estimate D2E/DX2                !
 ! D90   D(3,23,26,39)         -62.2249         estimate D2E/DX2                !
 ! D91   D(3,23,26,40)          60.2942         estimate D2E/DX2                !
 ! D92   D(3,23,26,41)         179.0335         estimate D2E/DX2                !
 ! D93   D(1,24,25,36)          62.6887         estimate D2E/DX2                !
 ! D94   D(1,24,25,37)        -178.6258         estimate D2E/DX2                !
 ! D95   D(1,24,25,38)         -59.9818         estimate D2E/DX2                !
 --------------------------------------------------------------------------------
 Trust Radius=3.00D-01 FncErr=1.00D-07 GrdErr=1.00D-06
 Number of steps in this run= 219 maximum allowed number of steps= 246.
 GradGradGradGradGradGradGradGradGradGradGradGradGradGradGradGradGradGrad

 Leave Link  103 at Wed Jul 10 06:21:23 2019, MaxMem=  209715200 cpu:       0.0
 (Enter C:\G09W\l202.exe)
                          Input orientation:                          
 ---------------------------------------------------------------------
 Center     Atomic      Atomic             Coordinates (Angstroms)
 Number     Number       Type             X           Y           Z
 ---------------------------------------------------------------------
      1          6           0       -1.108623   -2.343786    0.992864
      2          6           0       -1.761023   -1.454506    0.137432
      3          6           0       -2.131493   -1.868871   -1.143412
      4          6           0       -1.848637   -3.161642   -1.569611
      5          6           0       -1.206566   -4.023290   -0.700585
      6          6           0       -0.830133   -3.639111    0.573177
      7          7           0       -2.097211   -0.156598    0.599620
      8          6           0       -1.530677    0.996445    0.187257
      9          6           0       -1.982861    2.239575    0.349091
     10          6           0       -0.172773    1.086488   -0.478270
     11          6           0       -1.010836    3.193947   -0.172747
     12          8           0        0.017407    2.469166   -0.666536
     13         17           0       -3.469144    2.712567    1.072006
     14          8           0       -1.039430    4.372174   -0.217297
     15          6           0        0.953799    0.484245    0.370733
     16          6           0        2.315627    0.787799   -0.174464
     17          8           0        0.881275    0.911892    1.699271
     18          8           0        3.234743   -0.187332    0.060353
     19          6           0        4.389510    0.239975   -0.444701
     20          6           0        4.274148    1.446608   -1.005659
     21          6           0        2.892053    1.808932   -0.822859
     22         17           0        5.726035   -0.811235   -0.284950
     23          8           0       -2.744982   -0.944547   -1.892907
     24          8           0       -0.767075   -1.856384    2.197218
     25          6           0       -0.131797   -2.687970    3.139589
     26          6           0       -3.186012   -1.260708   -3.189648
     27          1           0       -0.186909    0.607846   -1.450672
     28          1           0        0.846839   -0.592373    0.318571
     29          1           0       -2.122010   -3.495942   -2.550171
     30          1           0       -0.987916   -5.024393   -1.027082
     31          1           0       -0.326887   -4.335230    1.213164
     32          1           0       -2.994115   -0.056827    1.021907
     33          1           0        0.254055    0.376351    2.161577
     34          1           0        5.048215    2.010382   -1.480737
     35          1           0        2.414664    2.714495   -1.126461
     36          1           0        0.830620   -3.029240    2.776079
     37          1           0        0.014153   -2.081411    4.020249
     38          1           0       -0.753612   -3.539846    3.389635
     39          1           0       -2.355722   -1.531898   -3.832461
     40          1           0       -3.910988   -2.066865   -3.171343
     41          1           0       -3.654782   -0.366035   -3.569472
 ---------------------------------------------------------------------
                    Distance matrix (angstroms):
                    1          2          3          4          5
     1  C    0.000000
     2  C    1.395782   0.000000
     3  C    2.415674   1.396248   0.000000
     4  C    2.789765   2.415778   1.390291   0.000000
     5  C    2.387069   2.758323   2.386023   1.381991   0.000000
     6  C    1.389806   2.414317   2.788183   2.420097   1.382666
     7  N    2.432229   1.418170   2.443607   3.714518   4.175535
     8  C    3.461831   2.462256   3.215851   4.525193   5.107940
     9  C    4.710195   3.706784   4.373670   5.733461   6.397494
    10  C    3.847964   3.059130   3.607374   4.695333   5.218044
    11  C    5.659920   4.718804   5.275433   6.560995   7.239160
    12  O    5.214025   4.382280   4.864540   6.000305   6.606910
    13  Cl   5.580773   4.599522   5.261840   6.641575   7.323463
    14  O    6.824470   5.881898   6.403197   7.696879   8.411024
    15  C    3.555051   3.344166   4.165191   4.991100   5.112022
    16  C    4.784869   4.663077   5.270069   5.906404   5.985752
    17  O    3.880482   3.875683   4.989014   5.893360   5.871491
    18  O    4.938087   5.154546   5.750923   6.110978   5.917671
    19  C    6.242746   6.406185   6.889043   7.193810   7.039671
    20  C    6.880073   6.793115   7.214126   7.683912   7.749263
    21  C    6.045438   5.763966   6.234180   6.909297   7.129407
    22  Cl   7.119977   7.526503   7.974729   8.034328   7.651863
    23  O    3.600446   2.313117   1.338838   2.413186   3.642391
    24  O    1.343385   2.322102   3.608546   4.130675   3.644982
    25  C    2.383502   3.631633   4.797271   5.034726   4.205371
    26  C    4.793956   3.624584   2.380957   2.833133   4.212541
    27  H    3.941136   3.041908   3.163849   4.121229   4.801016
    28  H    2.710341   2.752640   3.554898   4.175161   4.126299
    29  H    3.861025   3.394257   2.150912   1.071442   2.130047
    30  H    3.358632   3.833781   3.358366   2.122503   1.075461
    31  H    2.150696   3.393010   3.859142   3.381844   2.129220
    32  H    2.964136   2.063085   2.952326   4.203327   4.679224
    33  H    3.259130   3.392601   4.653473   5.555220   5.448140
    34  H    7.936254   7.809587   8.167656   8.621154   8.725601
    35  H    6.518535   6.034431   6.455623   7.273314   7.661098
    36  H    2.722199   4.019808   5.048067   5.106953   4.150356
    37  H    3.239526   4.315151   5.595745   5.990277   5.248554
    38  H    2.702055   3.992536   5.023866   5.092763   4.143523
    39  H    5.049572   4.014935   2.719341   2.834377   4.163681
    40  H    5.026983   3.993160   2.705237   2.831497   4.152847
    41  H    5.586532   4.302584   3.234918   3.882914   5.253550
                    6          7          8          9         10
     6  C    0.000000
     7  N    3.705952   0.000000
     8  C    4.704049   1.349264   0.000000
     9  C    5.994827   2.411946   1.332679   0.000000
    10  C    4.885586   2.531911   1.514905   2.300121   0.000000
    11  C    6.876026   3.605955   2.286668   1.458757   2.288466
    12  O    6.290172   3.601305   2.300964   2.255057   1.408336
    13  Cl   6.896160   3.215192   2.735966   1.719117   3.989179
    14  O    8.052909   4.721867   3.435191   2.399757   3.408069
    15  C    4.497273   3.125977   2.543351   3.421348   1.533841
    16  C    5.481998   4.578671   3.868905   4.567139   2.524608
    17  O    4.990855   3.349967   2.847955   3.433512   2.425528
    18  O    5.357330   5.359243   4.911890   5.761652   3.677485
    19  C    6.582405   6.582205   6.001686   6.725743   4.640273
    20  C    7.376378   6.763239   5.943205   6.450915   4.492542
    21  C    6.744239   5.547928   4.608797   5.032267   3.167621
    22  Cl   7.191426   7.900265   7.493367   8.314838   6.199569
    23  O    4.124184   2.693169   3.093391   3.968125   3.569672
    24  O    2.412385   2.685303   3.572347   4.655168   4.021433
    25  C    2.824679   4.089271   4.924230   5.957686   5.228491
    26  C    5.036449   4.094276   4.386156   5.120764   4.684070
    27  H    4.748299   2.904707   2.153958   3.021114   1.083911
    28  H    3.487072   2.989368   2.862546   4.003506   2.119702
    29  H    3.383008   4.590536   5.293839   6.428160   5.393604
    30  H    2.122435   5.250916   6.166012   7.459826   6.189388
    31  H    1.071178   4.579459   5.561327   6.834979   5.681525
    32  H    4.209149   0.996352   1.986875   2.597841   3.393769
    33  H    4.452237   2.872664   2.732714   3.429359   2.766816
    34  H    8.407753   7.751181   6.862368   7.268895   5.396039
    35  H    7.333879   5.619568   4.499252   4.662728   3.124962
    36  H    2.825389   4.643408   5.337028   6.447198   5.341985
    37  H    3.875765   4.456845   5.152817   6.011355   5.505197
    38  H    2.819245   4.586481   5.606870   6.645124   6.058137
    39  H    5.116387   4.647754   4.819891   5.643440   4.782448
    40  H    5.097554   4.599899   5.131271   5.886982   5.583057
    41  H    5.987755   4.455471   4.525614   4.993962   4.877473
                   11         12         13         14         15
    11  C    0.000000
    12  O    1.351451   0.000000
    13  Cl   2.797216   3.903564   0.000000
    14  O    1.179416   2.222647   3.212492   0.000000
    15  C    3.390818   2.427482   5.001962   4.408484   0.000000
    16  C    4.105473   2.889800   6.222700   4.909785   1.497985
    17  O    3.506039   2.961151   4.749951   4.397260   1.397553
    18  O    5.432525   4.235162   7.373938   6.255776   2.397928
    19  C    6.161465   4.912615   8.376906   6.826432   3.539592
    20  C    5.628321   4.390954   8.116521   6.116744   3.720929
    21  C    4.192070   2.953631   6.698649   4.732174   2.633683
    22  Cl   7.838335   6.595079   9.940313   8.523135   4.988229
    23  O    4.805554   4.559410   4.763360   5.829588   4.565796
    24  O    5.584084   5.246607   5.426103   6.685731   3.431618
    25  C    6.807439   6.411310   6.676720   7.870077   4.348336
    26  C    5.803192   5.526296   5.833419   6.721015   5.732295
    27  H    2.999978   2.030056   4.644009   4.051934   2.152675
    28  H    4.246006   3.321357   5.487987   5.337780   1.083175
    29  H    7.186200   6.611180   7.313038   8.277773   5.816715
    30  H    8.262659   7.569286   8.391854   9.431536   6.005767
    31  H    7.686159   7.067646   7.717846   8.852843   5.057389
    32  H    3.991006   4.277937   2.810286   4.997246   4.037674
    33  H    3.871416   3.526202   4.528497   4.826878   1.925722
    34  H    6.310607   5.116877   8.919359   6.650847   4.745659
    35  H    3.587965   2.453275   6.281119   3.937670   3.057733
    36  H    7.128435   6.537995   7.372936   8.199897   4.259746
    37  H    6.816247   6.532512   6.618740   7.792021   4.559001
    38  H    7.622381   7.290763   7.199874   8.700098   5.312469
    39  H    6.126650   5.627018   6.580956   7.046992   5.717045
    40  H    6.714060   6.502455   6.406575   7.644178   6.536101
    41  H    5.585845   5.472694   5.572752   6.366142   6.122680
                   16         17         18         19         20
    16  C    0.000000
    17  O    2.362974   0.000000
    18  O    1.360439   3.071345   0.000000
    19  C    2.161974   4.166029   1.330848   0.000000
    20  C    2.227267   4.371974   2.210544   1.335644   0.000000
    21  C    1.339924   3.347992   2.209654   2.201592   1.440445
    22  Cl   3.768289   5.511624   2.591337   1.707882   2.779434
    23  O    5.618170   5.431376   6.336064   7.375728   7.468133
    24  O    4.703151   3.260117   4.833888   6.161560   6.825109
    25  C    5.390158   4.007473   5.202737   6.470102   7.327357
    26  C    6.599678   6.720457   7.276039   8.196055   8.231243
    27  H    2.814920   3.340000   3.824030   4.700098   4.560985
    28  H    2.074921   2.042139   2.435738   3.718320   4.202080
    29  H    6.609617   6.819566   6.815903   7.796792   8.229529
    30  H    6.739579   6.794583   6.512336   7.547811   8.340481
    31  H    5.929066   5.406315   5.587418   6.776829   7.715073
    32  H    5.507999   4.051652   6.303990   7.533721   7.694088
    33  H    3.142683   0.945482   3.690174   4.890120   5.228574
    34  H    3.266205   5.355606   3.239380   2.154438   1.068981
    35  H    2.151340   3.685841   3.240626   3.238528   2.253844
    36  H    5.047845   4.085903   4.607756   5.807486   6.796517
    37  H    5.578957   3.885705   5.444310   6.668460   7.473569
    38  H    6.391521   5.034695   6.183077   7.445863   8.334369
    39  H    6.370513   6.859323   6.943714   7.753361   7.798557
    40  H    7.476705   7.453969   8.064613   9.036280   9.166850
    41  H    6.964424   7.068845   7.789295   8.651131   8.527998
                   21         22         23         24         25
    21  C    0.000000
    22  Cl   3.896932   0.000000
    23  O    6.364182   8.623307   0.000000
    24  O    5.995384   7.029507   4.633863   0.000000
    25  C    6.713180   7.040156   5.932476   1.408253   0.000000
    26  C    7.208832   9.384236   1.405704   5.935016   7.171091
    27  H    3.364040   6.191575   3.024770   4.440284   5.651189
    28  H    3.354404   4.921249   4.232711   2.780604   3.647931
    29  H    7.501075   8.598296   2.707343   5.202086   6.081705
    30  H    7.860674   7.961068   4.525713   4.525612   4.853139
    31  H    7.228948   7.162454   5.195343   2.703110   2.542172
    32  H    6.444470   8.849747   3.057164   3.095072   4.427229
    33  H    4.232987   6.110517   5.213237   2.455419   3.239669
    34  H    2.263276   3.138609   8.344783   7.892834   8.381793
    35  H    1.067763   4.909592   6.371654   6.485618   7.339637
    36  H    6.372579   6.185025   6.239415   2.064776   1.083906
    37  H    6.846369   7.264550   6.623496   1.996095   1.079248
    38  H    7.723044   7.933077   6.213403   2.063028   1.083914
    39  H    6.910716   8.855449   2.063583   6.243887   7.408902
    40  H    8.174261  10.138051   2.062418   6.224945   7.382135
    41  H    7.425322   9.949172   1.993309   6.619268   7.925548
                   26         27         28         29         30
    26  C    0.000000
    27  H    3.938293   0.000000
    28  H    5.386851   2.374738   0.000000
    29  H    2.556815   4.668468   5.047223   0.000000
    30  H    4.865557   5.704661   4.981958   2.437649   0.000000
    31  H    6.083752   5.616905   4.023296   4.253182   2.435284
    32  H    4.384444   3.799453   3.941373   5.034662   5.735844
    33  H    6.568838   3.646420   2.164830   6.545297   6.393596
    34  H    9.023464   5.419828   5.259601   9.103594   9.280557
    35  H    7.171231   3.363222   3.934662   7.821630   8.454455
    36  H    7.406142   5.668261   3.460915   6.107763   4.663876
    37  H    7.930777   6.099468   4.075907   7.052270   5.927971
    38  H    7.375500   6.399459   4.547579   6.095551   4.665423
    39  H    1.084497   3.867192   5.326366   2.357193   4.683862
    40  H    1.084350   4.897300   6.081985   2.372458   4.678587
    41  H    1.079097   4.178983   5.952537   3.631072   5.939379
                   31         32         33         34         35
    31  H    0.000000
    32  H    5.045336   0.000000
    33  H    4.841072   3.469452   0.000000
    34  H    8.741603   8.672696   6.238628   0.000000
    35  H    7.917611   6.445976   4.576717   2.748978   0.000000
    36  H    2.342677   5.151792   3.508289   7.829839   7.122465
    37  H    3.616039   4.705175   3.090762   8.505610   7.433155
    38  H    2.356216   4.770473   4.226123   9.390780   8.339657
    39  H    6.118266   5.113538   6.810348   8.537953   6.936200
    40  H    6.100423   4.739647   7.194228   9.987463   8.188823
    41  H    7.050036   4.648962   6.976752   9.260255   7.231607
                   36         37         38         39         40
    36  H    0.000000
    37  H    1.764357   0.000000
    38  H    1.773967   1.764701   0.000000
    39  H    7.487831   8.220908   7.665330   0.000000
    40  H    7.666866   8.193042   7.428669   1.772602   0.000000
    41  H    8.214470   8.602759   8.180405   1.765207   1.765495
                   41
    41  H    0.000000
 Stoichiometry    C17H15Cl2NO6
 Framework group  C1[X(C17H15Cl2NO6)]
 Deg. of freedom   117
 Full point group                 C1      NOp   1
 Largest Abelian subgroup         C1      NOp   1
 Largest concise Abelian subgroup C1      NOp   1
                         Standard orientation:                         
 ---------------------------------------------------------------------
 Center     Atomic      Atomic             Coordinates (Angstroms)
 Number     Number       Type             X           Y           Z
 ---------------------------------------------------------------------
      1          6           0        1.108623    2.343786    0.992864
      2          6           0        1.761023    1.454506    0.137432
      3          6           0        2.131493    1.868871   -1.143412
      4          6           0        1.848637    3.161642   -1.569611
      5          6           0        1.206566    4.023290   -0.700585
      6          6           0        0.830133    3.639111    0.573177
      7          7           0        2.097211    0.156598    0.599620
      8          6           0        1.530677   -0.996445    0.187257
      9          6           0        1.982861   -2.239575    0.349091
     10          6           0        0.172773   -1.086488   -0.478270
     11          6           0        1.010836   -3.193947   -0.172747
     12          8           0       -0.017407   -2.469166   -0.666536
     13         17           0        3.469144   -2.712567    1.072006
     14          8           0        1.039430   -4.372174   -0.217297
     15          6           0       -0.953799   -0.484245    0.370733
     16          6           0       -2.315627   -0.787799   -0.174464
     17          8           0       -0.881275   -0.911892    1.699271
     18          8           0       -3.234743    0.187332    0.060353
     19          6           0       -4.389510   -0.239975   -0.444701
     20          6           0       -4.274148   -1.446608   -1.005659
     21          6           0       -2.892053   -1.808932   -0.822859
     22         17           0       -5.726035    0.811235   -0.284950
     23          8           0        2.744982    0.944547   -1.892907
     24          8           0        0.767075    1.856384    2.197218
     25          6           0        0.131797    2.687970    3.139589
     26          6           0        3.186012    1.260708   -3.189648
     27          1           0        0.186909   -0.607846   -1.450672
     28          1           0       -0.846839    0.592373    0.318571
     29          1           0        2.122010    3.495942   -2.550171
     30          1           0        0.987916    5.024393   -1.027082
     31          1           0        0.326887    4.335230    1.213164
     32          1           0        2.994115    0.056827    1.021907
     33          1           0       -0.254055   -0.376351    2.161577
     34          1           0       -5.048215   -2.010382   -1.480737
     35          1           0       -2.414664   -2.714495   -1.126461
     36          1           0       -0.830620    3.029240    2.776079
     37          1           0       -0.014153    2.081411    4.020249
     38          1           0        0.753612    3.539846    3.389635
     39          1           0        2.355722    1.531898   -3.832461
     40          1           0        3.910988    2.066865   -3.171343
     41          1           0        3.654782    0.366035   -3.569472
 ---------------------------------------------------------------------
 Rotational constants (GHZ):      0.1998523      0.1359229      0.1028742
 Leave Link  202 at Wed Jul 10 06:21:23 2019, MaxMem=  209715200 cpu:       0.0
 (Enter C:\G09W\l301.exe)
 Standard basis: 6-311++G(d,p) (5D, 7F)
 Ernie: Thresh=  0.10000D-02 Tol=  0.10000D-05 Strict=F.
 There are   693 symmetry adapted basis functions of A   symmetry.
 Integral buffers will be    262144 words long.
 Raffenetti 2 integral format.
 Two-electron integral symmetry is turned on.
   693 basis functions,  1105 primitive gaussians,   719 cartesian basis functions
   103 alpha electrons      103 beta electrons
       nuclear repulsion energy      2747.0368787398 Hartrees.
 IExCor=  402 DFT=T Ex+Corr=B3LYP ExCW=0 ScaHFX=  0.200000
 ScaDFX=  0.800000  0.720000  1.000000  0.810000 ScalE2=  1.000000  1.000000
 IRadAn=      0 IRanWt=     -1 IRanGd=            0 ICorTp=0
 NAtoms=   41 NActive=   41 NUniq=   41 SFac= 7.50D-01 NAtFMM=   80 NAOKFM=F Big=F
 Leave Link  301 at Wed Jul 10 06:21:23 2019, MaxMem=  209715200 cpu:       0.0
 (Enter C:\G09W\l302.exe)
 NPDir=0 NMtPBC=     1 NCelOv=     1 NCel=       1 NClECP=     1 NCelD=      1
         NCelK=      1 NCelE2=     1 NClLst=     1 CellRange=     0.0.
 One-electron integrals computed using PRISM.
 NBasis=   693 RedAO= T  NBF=   693
 NBsUse=   689 1.00D-06 NBFU=   689
 Precomputing XC quadrature grid using
 IXCGrd= 2 IRadAn=           0 IRanWt=          -1 IRanGd=           0 AccXCQ= 1.00D-10.
 NRdTot=    2678 NPtTot=      342762 NUsed=      355236 NTot=      355252
 NSgBfM=   696   699   700   700   701 NAtAll=    41    41.
 Leave Link  302 at Wed Jul 10 06:21:27 2019, MaxMem=  209715200 cpu:       4.0
 (Enter C:\G09W\l303.exe)
 DipDrv:  MaxL=1.
 Leave Link  303 at Wed Jul 10 06:21:27 2019, MaxMem=  209715200 cpu:       0.0
 (Enter C:\G09W\l401.exe)
 Harris functional with IExCor=  402 diagonalized for initial guess.
 ExpMin= 3.60D-02 ExpMax= 1.06D+05 ExpMxC= 3.62D+03 IAcc=3 IRadAn=         0 AccDes= 0.00D+00
 HarFok:  IExCor=  402 AccDes= 0.00D+00 IRadAn=         0 IDoV= 1
 ScaDFX=  1.000000  1.000000  1.000000  1.000000
 FoFCou: FMM=F IPFlag=           0 FMFlag=      100000 FMFlg1=           0
         NFxFlg=           0 DoJE=T BraDBF=F KetDBF=T FulRan=T
         Omega=  0.000000  0.000000  1.000000  0.000000  0.000000 ICntrl=     500 IOpCl=  0
         NMat0=    1 NMatS0=    1 NMatT0=    0 NMatD0=    1 NMtDS0=    0 NMtDT0=    0
         I1Cent=           4 NGrid=           0.
 Petite list used in FoFCou.
 Harris En= -2083.68122302410    
 Initial guess orbital symmetries:
       Occupied  (A) (A) (A) (A) (A) (A) (A) (A) (A) (A) (A) (A)
                 (A) (A) (A) (A) (A) (A) (A) (A) (A) (A) (A) (A)
                 (A) (A) (A) (A) (A) (A) (A) (A) (A) (A) (A) (A)
                 (A) (A) (A) (A) (A) (A) (A) (A) (A) (A) (A) (A)
                 (A) (A) (A) (A) (A) (A) (A) (A) (A) (A) (A) (A)
                 (A) (A) (A) (A) (A) (A) (A) (A) (A) (A) (A) (A)
                 (A) (A) (A) (A) (A) (A) (A) (A) (A) (A) (A) (A)
                 (A) (A) (A) (A) (A) (A) (A) (A) (A) (A) (A) (A)
                 (A) (A) (A) (A) (A) (A) (A)
       Virtual   (A) (A) (A) (A) (A) (A) (A) (A) (A) (A) (A) (A)
                 (A) (A) (A) (A) (A) (A) (A) (A) (A) (A) (A) (A)
                 (A) (A) (A) (A) (A) (A) (A) (A) (A) (A) (A) (A)
                 (A) (A) (A) (A) (A) (A) (A) (A) (A) (A) (A) (A)
                 (A) (A) (A) (A) (A) (A) (A) (A) (A) (A) (A) (A)
                 (A) (A) (A) (A) (A) (A) (A) (A) (A) (A) (A) (A)
                 (A) (A) (A) (A) (A) (A) (A) (A) (A) (A) (A) (A)
                 (A) (A) (A) (A) (A) (A) (A) (A) (A) (A) (A) (A)
                 (A) (A) (A) (A) (A) (A) (A) (A) (A) (A) (A) (A)
                 (A) (A) (A) (A) (A) (A) (A) (A) (A) (A) (A) (A)
                 (A) (A) (A) (A) (A) (A) (A) (A) (A) (A) (A) (A)
                 (A) (A) (A) (A) (A) (A) (A) (A) (A) (A) (A) (A)
                 (A) (A) (A) (A) (A) (A) (A) (A) (A) (A) (A) (A)
                 (A) (A) (A) (A) (A) (A) (A) (A) (A) (A) (A) (A)
                 (A) (A) (A) (A) (A) (A) (A) (A) (A) (A) (A) (A)
                 (A) (A) (A) (A) (A) (A) (A) (A) (A) (A) (A) (A)
                 (A) (A) (A) (A) (A) (A) (A) (A) (A) (A) (A) (A)
                 (A) (A) (A) (A) (A) (A) (A) (A) (A) (A) (A) (A)
                 (A) (A) (A) (A) (A) (A) (A) (A) (A) (A) (A) (A)
                 (A) (A) (A) (A) (A) (A) (A) (A) (A) (A) (A) (A)
                 (A) (A) (A) (A) (A) (A) (A) (A) (A) (A) (A) (A)
                 (A) (A) (A) (A) (A) (A) (A) (A) (A) (A) (A) (A)
                 (A) (A) (A) (A) (A) (A) (A) (A) (A) (A) (A) (A)
                 (A) (A) (A) (A) (A) (A) (A) (A) (A) (A) (A) (A)
                 (A) (A) (A) (A) (A) (A) (A) (A) (A) (A) (A) (A)
                 (A) (A) (A) (A) (A) (A) (A) (A) (A) (A) (A) (A)
                 (A) (A) (A) (A) (A) (A) (A) (A) (A) (A) (A) (A)
                 (A) (A) (A) (A) (A) (A) (A) (A) (A) (A) (A) (A)
                 (A) (A) (A) (A) (A) (A) (A) (A) (A) (A) (A) (A)
                 (A) (A) (A) (A) (A) (A) (A) (A) (A) (A) (A) (A)
                 (A) (A) (A) (A) (A) (A) (A) (A) (A) (A) (A) (A)
                 (A) (A) (A) (A) (A) (A) (A) (A) (A) (A) (A) (A)
                 (A) (A) (A) (A) (A) (A) (A) (A) (A) (A) (A) (A)
                 (A) (A) (A) (A) (A) (A) (A) (A) (A) (A) (A) (A)
                 (A) (A) (A) (A) (A) (A) (A) (A) (A) (A) (A) (A)
                 (A) (A) (A) (A) (A) (A) (A) (A) (A) (A) (A) (A)
                 (A) (A) (A) (A) (A) (A) (A) (A) (A) (A) (A) (A)
                 (A) (A) (A) (A) (A) (A) (A) (A) (A) (A) (A) (A)
                 (A) (A) (A) (A) (A) (A) (A) (A) (A) (A) (A) (A)
                 (A) (A) (A) (A) (A) (A) (A) (A) (A) (A) (A) (A)
                 (A) (A) (A) (A) (A) (A) (A) (A) (A) (A) (A) (A)
                 (A) (A) (A) (A) (A) (A) (A) (A) (A) (A) (A) (A)
                 (A) (A) (A) (A) (A) (A) (A) (A) (A) (A) (A) (A)
                 (A) (A) (A) (A) (A) (A) (A) (A) (A) (A) (A) (A)
                 (A) (A) (A) (A) (A) (A) (A) (A) (A) (A) (A) (A)
                 (A) (A) (A) (A) (A) (A) (A) (A) (A) (A) (A) (A)
                 (A) (A) (A) (A) (A) (A) (A) (A) (A) (A) (A) (A)
                 (A) (A) (A) (A) (A) (A) (A) (A) (A) (A) (A) (A)
                 (A) (A) (A) (A) (A) (A) (A) (A) (A) (A)
 The electronic state of the initial guess is 1-A.
 Leave Link  401 at Wed Jul 10 06:21:43 2019, MaxMem=  209715200 cpu:      16.0
 (Enter C:\G09W\l502.exe)
 Closed shell SCF:
 Requested convergence on RMS density matrix=1.00D-08 within 128 cycles.
 Requested convergence on MAX density matrix=1.00D-06.
 Requested convergence on             energy=1.00D-06.
 No special actions if energy rises.
 Using DIIS extrapolation, IDIIS=  1040.
 Integral symmetry usage will be decided dynamically.
       354895 words used for storage of precomputed grid.
 IEnd=     1932693 IEndB=     1932693 NGot=   209715200 MDV=   208316828
 LenX=   208316828 LenY=   207799148
 Fock matrices will be formed incrementally for  20 cycles.

 Cycle   1  Pass 1  IDiag  1:
 FoFCou: FMM=F IPFlag=           0 FMFlag=      100000 FMFlg1=           0
         NFxFlg=           0 DoJE=F BraDBF=F KetDBF=F FulRan=T
         Omega=  0.000000  0.000000  1.000000  0.000000  0.000000 ICntrl=       0 IOpCl=  0
         NMat0=    1 NMatS0=    1 NMatT0=    0 NMatD0=    1 NMtDS0=    0 NMtDT0=    0
         I1Cent=           0 NGrid=           0.
 Symmetry not used in FoFCou.
 E= -2083.03187203022    
 DIIS: error= 1.80D-02 at cycle   1 NSaved=   1.
 NSaved= 1 IEnMin= 1 EnMin= -2083.03187203022     IErMin= 1 ErrMin= 1.80D-02
 ErrMax= 1.80D-02 EMaxC= 1.00D-01 BMatC= 8.06D-01 BMatP= 8.06D-01
 IDIUse=3 WtCom= 8.20D-01 WtEn= 1.80D-01
 Coeff-Com:  0.100D+01
 Coeff-En:   0.100D+01
 Coeff:      0.100D+01
 Gap=     0.254 Goal=   None    Shift=    0.000
 GapD=    0.254 DampG=1.000 DampE=0.500 DampFc=0.5000 IDamp=-1.
 Damping current iteration by 5.00D-01
 RMSDP=3.13D-02 MaxDP=4.98D+00              OVMax= 2.97D-01

 Cycle   2  Pass 1  IDiag  1:
 RMSU=  1.02D-02    CP:  1.08D+00
 E= -2083.22767606656     Delta-E=       -0.195804036334 Rises=F Damp=T
 DIIS: error= 6.15D-03 at cycle   2 NSaved=   2.
 NSaved= 2 IEnMin= 2 EnMin= -2083.22767606656     IErMin= 2 ErrMin= 6.15D-03
 ErrMax= 6.15D-03 EMaxC= 1.00D-01 BMatC= 9.40D-02 BMatP= 8.06D-01
 IDIUse=3 WtCom= 9.38D-01 WtEn= 6.15D-02
 Coeff-Com:  0.134D+00 0.866D+00
 Coeff-En:   0.291D+00 0.709D+00
 Coeff:      0.144D+00 0.856D+00
 Gap=     0.294 Goal=   None    Shift=    0.000
 RMSDP=1.61D-02 MaxDP=3.09D+00 DE=-1.96D-01 OVMax= 2.21D-01

 Cycle   3  Pass 1  IDiag  1:
 RMSU=  6.13D-03    CP:  9.38D-01  4.01D-01
 E= -2083.53991014395     Delta-E=       -0.312234077392 Rises=F Damp=F
 DIIS: error= 9.63D-03 at cycle   3 NSaved=   3.
 NSaved= 3 IEnMin= 3 EnMin= -2083.53991014395     IErMin= 2 ErrMin= 6.15D-03
 ErrMax= 9.63D-03 EMaxC= 1.00D-01 BMatC= 1.13D-01 BMatP= 9.40D-02
 IDIUse=3 WtCom= 9.25D-02 WtEn= 9.08D-01
 Coeff-Com: -0.835D-02 0.528D+00 0.480D+00
 Coeff-En:   0.000D+00 0.000D+00 0.100D+01
 Coeff:     -0.772D-03 0.489D-01 0.952D+00
 Gap=     0.209 Goal=   None    Shift=    0.000
 RMSDP=1.43D-02 MaxDP=1.05D+00 DE=-3.12D-01 OVMax= 3.68D-01

 Cycle   4  Pass 1  IDiag  1:
 RMSU=  8.93D-03    CP:  9.46D-01  8.58D-01  9.78D-01
 E= -2083.15283665542     Delta-E=        0.387073488527 Rises=F Damp=F
 DIIS: error= 2.07D-02 at cycle   4 NSaved=   4.
 NSaved= 4 IEnMin= 3 EnMin= -2083.53991014395     IErMin= 2 ErrMin= 6.15D-03
 ErrMax= 2.07D-02 EMaxC= 1.00D-01 BMatC= 5.64D-01 BMatP= 9.40D-02
 IDIUse=2 WtCom= 0.00D+00 WtEn= 1.00D+00
 Coeff-En:   0.000D+00 0.000D+00 0.777D+00 0.223D+00
 Coeff:      0.000D+00 0.000D+00 0.777D+00 0.223D+00
 Gap=     0.197 Goal=   None    Shift=    0.000
 RMSDP=9.48D-03 MaxDP=8.53D-01 DE= 3.87D-01 OVMax= 1.48D-01

 Cycle   5  Pass 1  IDiag  1:
 RMSU=  1.63D-03    CP:  9.10D-01  5.67D-01  8.23D-01  3.96D-01
 E= -2083.60174808740     Delta-E=       -0.448911431983 Rises=F Damp=F
 DIIS: error= 5.06D-03 at cycle   5 NSaved=   5.
 NSaved= 5 IEnMin= 5 EnMin= -2083.60174808740     IErMin= 5 ErrMin= 5.06D-03
 ErrMax= 5.06D-03 EMaxC= 1.00D-01 BMatC= 3.93D-02 BMatP= 9.40D-02
 IDIUse=3 WtCom= 9.49D-01 WtEn= 5.06D-02
 Coeff-Com:  0.884D-02 0.680D-02 0.351D+00-0.115D-01 0.645D+00
 Coeff-En:   0.000D+00 0.000D+00 0.310D+00 0.000D+00 0.690D+00
 Coeff:      0.840D-02 0.646D-02 0.349D+00-0.110D-01 0.647D+00
 Gap=     0.192 Goal=   None    Shift=    0.000
 RMSDP=2.40D-03 MaxDP=1.61D-01 DE=-4.49D-01 OVMax= 4.14D-02

 Cycle   6  Pass 1  IDiag  1:
 RMSU=  6.15D-04    CP:  9.08D-01  4.95D-01  9.11D-01  2.62D-01  7.00D-01
 E= -2083.63407490371     Delta-E=       -0.032326816308 Rises=F Damp=F
 DIIS: error= 8.43D-04 at cycle   6 NSaved=   6.
 NSaved= 6 IEnMin= 6 EnMin= -2083.63407490371     IErMin= 6 ErrMin= 8.43D-04
 ErrMax= 8.43D-04 EMaxC= 1.00D-01 BMatC= 1.08D-03 BMatP= 3.93D-02
 IDIUse=3 WtCom= 9.92D-01 WtEn= 8.43D-03
 Coeff-Com:  0.393D-02-0.310D-02 0.162D+00-0.423D-01 0.447D+00 0.432D+00
 Coeff-En:   0.000D+00 0.000D+00 0.000D+00 0.000D+00 0.000D+00 0.100D+01
 Coeff:      0.389D-02-0.307D-02 0.161D+00-0.420D-01 0.443D+00 0.437D+00
 Gap=     0.188 Goal=   None    Shift=    0.000
 RMSDP=4.39D-04 MaxDP=4.66D-02 DE=-3.23D-02 OVMax= 8.98D-03

 Cycle   7  Pass 1  IDiag  1:
 RMSU=  1.17D-04    CP:  9.06D-01  4.97D-01  8.94D-01  2.64D-01  7.79D-01
                    CP:  6.58D-01
 E= -2083.63493159731     Delta-E=       -0.000856693595 Rises=F Damp=F
 DIIS: error= 2.14D-04 at cycle   7 NSaved=   7.
 NSaved= 7 IEnMin= 7 EnMin= -2083.63493159731     IErMin= 7 ErrMin= 2.14D-04
 ErrMax= 2.14D-04 EMaxC= 1.00D-01 BMatC= 5.38D-05 BMatP= 1.08D-03
 IDIUse=3 WtCom= 9.98D-01 WtEn= 2.14D-03
 Coeff-Com:  0.168D-02-0.179D-02 0.710D-01-0.259D-01 0.215D+00 0.234D+00
 Coeff-Com:  0.506D+00
 Coeff-En:   0.000D+00 0.000D+00 0.000D+00 0.000D+00 0.000D+00 0.000D+00
 Coeff-En:   0.100D+01
 Coeff:      0.168D-02-0.179D-02 0.708D-01-0.259D-01 0.214D+00 0.234D+00
 Coeff:      0.507D+00
 Gap=     0.188 Goal=   None    Shift=    0.000
 RMSDP=1.60D-04 MaxDP=2.66D-02 DE=-8.57D-04 OVMax= 2.18D-03

 Cycle   8  Pass 1  IDiag  1:
 RMSU=  4.19D-05    CP:  9.07D-01  4.95D-01  8.94D-01  2.59D-01  7.67D-01
                    CP:  5.84D-01  6.32D-01
 E= -2083.63497314595     Delta-E=       -0.000041548644 Rises=F Damp=F
 DIIS: error= 8.49D-05 at cycle   8 NSaved=   8.
 NSaved= 8 IEnMin= 8 EnMin= -2083.63497314595     IErMin= 8 ErrMin= 8.49D-05
 ErrMax= 8.49D-05 EMaxC= 1.00D-01 BMatC= 8.23D-06 BMatP= 5.38D-05
 IDIUse=1 WtCom= 1.00D+00 WtEn= 0.00D+00
 Coeff-Com:  0.588D-03-0.107D-02 0.160D-01-0.700D-02 0.456D-01 0.447D-01
 Coeff-Com:  0.285D+00 0.616D+00
 Coeff:      0.588D-03-0.107D-02 0.160D-01-0.700D-02 0.456D-01 0.447D-01
 Coeff:      0.285D+00 0.616D+00
 Gap=     0.188 Goal=   None    Shift=    0.000
 RMSDP=4.86D-05 MaxDP=4.53D-03 DE=-4.15D-05 OVMax= 5.90D-04

 Cycle   9  Pass 1  IDiag  1:
 RMSU=  1.76D-05    CP:  9.07D-01  4.94D-01  8.92D-01  2.57D-01  7.70D-01
                    CP:  5.98D-01  6.81D-01  7.84D-01
 E= -2083.63497900845     Delta-E=       -0.000005862501 Rises=F Damp=F
 DIIS: error= 2.16D-05 at cycle   9 NSaved=   9.
 NSaved= 9 IEnMin= 9 EnMin= -2083.63497900845     IErMin= 9 ErrMin= 2.16D-05
 ErrMax= 2.16D-05 EMaxC= 1.00D-01 BMatC= 6.37D-07 BMatP= 8.23D-06
 IDIUse=1 WtCom= 1.00D+00 WtEn= 0.00D+00
 Coeff-Com:  0.265D-03-0.587D-03 0.374D-02-0.187D-02 0.867D-02 0.546D-02
 Coeff-Com:  0.127D+00 0.355D+00 0.502D+00
 Coeff:      0.265D-03-0.587D-03 0.374D-02-0.187D-02 0.867D-02 0.546D-02
 Coeff:      0.127D+00 0.355D+00 0.502D+00
 Gap=     0.188 Goal=   None    Shift=    0.000
 RMSDP=1.79D-05 MaxDP=2.55D-03 DE=-5.86D-06 OVMax= 3.55D-04

 Cycle  10  Pass 1  IDiag  1:
 RMSU=  6.08D-06    CP:  9.07D-01  4.94D-01  8.92D-01  2.56D-01  7.68D-01
                    CP:  5.94D-01  6.88D-01  8.33D-01  6.26D-01
 E= -2083.63497958164     Delta-E=       -0.000000573189 Rises=F Damp=F
 DIIS: error= 4.68D-06 at cycle  10 NSaved=  10.
 NSaved=10 IEnMin=10 EnMin= -2083.63497958164     IErMin=10 ErrMin= 4.68D-06
 ErrMax= 4.68D-06 EMaxC= 1.00D-01 BMatC= 4.71D-08 BMatP= 6.37D-07
 IDIUse=1 WtCom= 1.00D+00 WtEn= 0.00D+00
 Coeff-Com:  0.915D-04-0.236D-03 0.528D-03-0.287D-03 0.323D-03-0.102D-02
 Coeff-Com:  0.395D-01 0.124D+00 0.272D+00 0.564D+00
 Coeff:      0.915D-04-0.236D-03 0.528D-03-0.287D-03 0.323D-03-0.102D-02
 Coeff:      0.395D-01 0.124D+00 0.272D+00 0.564D+00
 Gap=     0.188 Goal=   None    Shift=    0.000
 RMSDP=6.73D-06 MaxDP=9.99D-04 DE=-5.73D-07 OVMax= 1.07D-04

 Cycle  11  Pass 1  IDiag  1:
 RMSU=  2.06D-06    CP:  9.07D-01  4.94D-01  8.93D-01  2.57D-01  7.69D-01
                    CP:  5.94D-01  6.96D-01  8.13D-01  5.83D-01  7.34D-01
 E= -2083.63497961622     Delta-E=       -0.000000034582 Rises=F Damp=F
 DIIS: error= 2.45D-06 at cycle  11 NSaved=  11.
 NSaved=11 IEnMin=11 EnMin= -2083.63497961622     IErMin=11 ErrMin= 2.45D-06
 ErrMax= 2.45D-06 EMaxC= 1.00D-01 BMatC= 1.16D-08 BMatP= 4.71D-08
 IDIUse=1 WtCom= 1.00D+00 WtEn= 0.00D+00
 Coeff-Com:  0.169D-04-0.644D-04-0.143D-03 0.462D-04-0.698D-03-0.774D-03
 Coeff-Com:  0.617D-02 0.236D-01 0.943D-01 0.370D+00 0.508D+00
 Coeff:      0.169D-04-0.644D-04-0.143D-03 0.462D-04-0.698D-03-0.774D-03
 Coeff:      0.617D-02 0.236D-01 0.943D-01 0.370D+00 0.508D+00
 Gap=     0.188 Goal=   None    Shift=    0.000
 RMSDP=1.71D-06 MaxDP=1.63D-04 DE=-3.46D-08 OVMax= 2.78D-05

 Cycle  12  Pass 1  IDiag  1:
 RMSU=  6.00D-07    CP:  9.07D-01  4.94D-01  8.93D-01  2.57D-01  7.68D-01
                    CP:  5.93D-01  6.97D-01  8.18D-01  6.10D-01  7.46D-01
                    CP:  6.87D-01
 E= -2083.63497962578     Delta-E=       -0.000000009560 Rises=F Damp=F
 DIIS: error= 6.83D-07 at cycle  12 NSaved=  12.
 NSaved=12 IEnMin=12 EnMin= -2083.63497962578     IErMin=12 ErrMin= 6.83D-07
 ErrMax= 6.83D-07 EMaxC= 1.00D-01 BMatC= 4.40D-10 BMatP= 1.16D-08
 IDIUse=1 WtCom= 1.00D+00 WtEn= 0.00D+00
 Coeff-Com:  0.487D-06-0.116D-04-0.133D-03 0.479D-04-0.434D-03-0.286D-03
 Coeff-Com:  0.439D-03 0.416D-02 0.293D-01 0.152D+00 0.237D+00 0.578D+00
 Coeff:      0.487D-06-0.116D-04-0.133D-03 0.479D-04-0.434D-03-0.286D-03
 Coeff:      0.439D-03 0.416D-02 0.293D-01 0.152D+00 0.237D+00 0.578D+00
 Gap=     0.188 Goal=   None    Shift=    0.000
 RMSDP=6.19D-07 MaxDP=5.69D-05 DE=-9.56D-09 OVMax= 9.17D-06

 Cycle  13  Pass 1  IDiag  1:
 RMSU=  1.89D-07    CP:  9.07D-01  4.94D-01  8.93D-01  2.57D-01  7.69D-01
                    CP:  5.94D-01  6.96D-01  8.19D-01  6.10D-01  7.53D-01
                    CP:  6.90D-01  7.45D-01
 E= -2083.63497962623     Delta-E=       -0.000000000442 Rises=F Damp=F
 DIIS: error= 3.76D-07 at cycle  13 NSaved=  13.
 NSaved=13 IEnMin=13 EnMin= -2083.63497962623     IErMin=13 ErrMin= 3.76D-07
 ErrMax= 3.76D-07 EMaxC= 1.00D-01 BMatC= 9.72D-11 BMatP= 4.40D-10
 IDIUse=1 WtCom= 1.00D+00 WtEn= 0.00D+00
 Coeff-Com: -0.246D-05 0.317D-05-0.682D-04 0.227D-04-0.182D-03-0.563D-04
 Coeff-Com: -0.472D-03-0.223D-03 0.550D-02 0.452D-01 0.701D-01 0.346D+00
 Coeff-Com:  0.535D+00
 Coeff:     -0.246D-05 0.317D-05-0.682D-04 0.227D-04-0.182D-03-0.563D-04
 Coeff:     -0.472D-03-0.223D-03 0.550D-02 0.452D-01 0.701D-01 0.346D+00
 Coeff:      0.535D+00
 Gap=     0.188 Goal=   None    Shift=    0.000
 RMSDP=2.54D-07 MaxDP=3.09D-05 DE=-4.42D-10 OVMax= 4.14D-06

 Cycle  14  Pass 1  IDiag  1:
 RMSU=  7.36D-08    CP:  9.07D-01  4.94D-01  8.93D-01  2.57D-01  7.69D-01
                    CP:  5.94D-01  6.96D-01  8.19D-01  6.13D-01  7.62D-01
                    CP:  6.77D-01  7.67D-01  5.42D-01
 E= -2083.63497962633     Delta-E=       -0.000000000109 Rises=F Damp=F
 DIIS: error= 7.69D-08 at cycle  14 NSaved=  14.
 NSaved=14 IEnMin=14 EnMin= -2083.63497962633     IErMin=14 ErrMin= 7.69D-08
 ErrMax= 7.69D-08 EMaxC= 1.00D-01 BMatC= 7.71D-12 BMatP= 9.72D-11
 IDIUse=1 WtCom= 1.00D+00 WtEn= 0.00D+00
 Coeff-Com: -0.137D-05 0.317D-05-0.203D-04 0.569D-05-0.424D-04 0.897D-05
 Coeff-Com: -0.242D-03-0.487D-03-0.747D-03 0.428D-02 0.388D-02 0.955D-01
 Coeff-Com:  0.265D+00 0.633D+00
 Coeff:     -0.137D-05 0.317D-05-0.203D-04 0.569D-05-0.424D-04 0.897D-05
 Coeff:     -0.242D-03-0.487D-03-0.747D-03 0.428D-02 0.388D-02 0.955D-01
 Coeff:      0.265D+00 0.633D+00
 Gap=     0.188 Goal=   None    Shift=    0.000
 RMSDP=8.46D-08 MaxDP=1.11D-05 DE=-1.09D-10 OVMax= 8.43D-07

 Cycle  15  Pass 1  IDiag  1:
 RMSU=  2.45D-08    CP:  9.07D-01  4.94D-01  8.93D-01  2.57D-01  7.69D-01
                    CP:  5.94D-01  6.96D-01  8.19D-01  6.12D-01  7.60D-01
                    CP:  6.80D-01  7.77D-01  5.87D-01  7.74D-01
 E= -2083.63497962634     Delta-E=       -0.000000000010 Rises=F Damp=F
 DIIS: error= 3.03D-08 at cycle  15 NSaved=  15.
 NSaved=15 IEnMin=15 EnMin= -2083.63497962634     IErMin=15 ErrMin= 3.03D-08
 ErrMax= 3.03D-08 EMaxC= 1.00D-01 BMatC= 1.09D-12 BMatP= 7.71D-12
 IDIUse=1 WtCom= 1.00D+00 WtEn= 0.00D+00
 Coeff-Com: -0.549D-06 0.140D-05-0.426D-05 0.106D-05-0.480D-05 0.101D-04
 Coeff-Com: -0.880D-04-0.274D-03-0.113D-02-0.300D-02-0.647D-02 0.125D-01
 Coeff-Com:  0.900D-01 0.351D+00 0.558D+00
 Coeff:     -0.549D-06 0.140D-05-0.426D-05 0.106D-05-0.480D-05 0.101D-04
 Coeff:     -0.880D-04-0.274D-03-0.113D-02-0.300D-02-0.647D-02 0.125D-01
 Coeff:      0.900D-01 0.351D+00 0.558D+00
 Gap=     0.188 Goal=   None    Shift=    0.000
 RMSDP=1.81D-08 MaxDP=1.79D-06 DE=-1.00D-11 OVMax= 2.77D-07

 Cycle  16  Pass 1  IDiag  1:
 RMSU=  6.42D-09    CP:  9.07D-01  4.94D-01  8.93D-01  2.57D-01  7.69D-01
                    CP:  5.94D-01  6.96D-01  8.19D-01  6.12D-01  7.60D-01
                    CP:  6.80D-01  7.78D-01  5.85D-01  7.87D-01  8.79D-01
 E= -2083.63497962648     Delta-E=       -0.000000000135 Rises=F Damp=F
 DIIS: error= 7.43D-09 at cycle  16 NSaved=  16.
 NSaved=16 IEnMin=16 EnMin= -2083.63497962648     IErMin=16 ErrMin= 7.43D-09
 ErrMax= 7.43D-09 EMaxC= 1.00D-01 BMatC= 8.85D-14 BMatP= 1.09D-12
 IDIUse=1 WtCom= 1.00D+00 WtEn= 0.00D+00
 Coeff-Com: -0.141D-06 0.347D-06-0.283D-06 0.486D-07 0.134D-05 0.378D-05
 Coeff-Com: -0.173D-04-0.862D-04-0.469D-03-0.181D-02-0.356D-02-0.277D-02
 Coeff-Com:  0.203D-01 0.115D+00 0.288D+00 0.585D+00
 Coeff:     -0.141D-06 0.347D-06-0.283D-06 0.486D-07 0.134D-05 0.378D-05
 Coeff:     -0.173D-04-0.862D-04-0.469D-03-0.181D-02-0.356D-02-0.277D-02
 Coeff:      0.203D-01 0.115D+00 0.288D+00 0.585D+00
 Gap=     0.188 Goal=   None    Shift=    0.000
 RMSDP=7.21D-09 MaxDP=9.37D-07 DE=-1.35D-10 OVMax= 9.24D-08

 SCF Done:  E(RB3LYP) =  -2083.63497963     A.U. after   16 cycles
             Convg  =    0.7205D-08             -V/T =  2.0026
 KE= 2.078166034788D+03 PE=-1.040040648528D+04 EE= 3.491568592127D+03
 Leave Link  502 at Wed Jul 10 06:56:34 2019, MaxMem=  209715200 cpu:    2091.0
 (Enter C:\G09W\l601.exe)
 Copying SCF densities to generalized density rwf, IOpCl= 0 IROHF=0.

 **********************************************************************

            Population analysis using the SCF density.

 **********************************************************************

 Orbital symmetries:
       Occupied  (A) (A) (A) (A) (A) (A) (A) (A) (A) (A) (A) (A)
                 (A) (A) (A) (A) (A) (A) (A) (A) (A) (A) (A) (A)
                 (A) (A) (A) (A) (A) (A) (A) (A) (A) (A) (A) (A)
                 (A) (A) (A) (A) (A) (A) (A) (A) (A) (A) (A) (A)
                 (A) (A) (A) (A) (A) (A) (A) (A) (A) (A) (A) (A)
                 (A) (A) (A) (A) (A) (A) (A) (A) (A) (A) (A) (A)
                 (A) (A) (A) (A) (A) (A) (A) (A) (A) (A) (A) (A)
                 (A) (A) (A) (A) (A) (A) (A) (A) (A) (A) (A) (A)
                 (A) (A) (A) (A) (A) (A) (A)
       Virtual   (A) (A) (A) (A) (A) (A) (A) (A) (A) (A) (A) (A)
                 (A) (A) (A) (A) (A) (A) (A) (A) (A) (A) (A) (A)
                 (A) (A) (A) (A) (A) (A) (A) (A) (A) (A) (A) (A)
                 (A) (A) (A) (A) (A) (A) (A) (A) (A) (A) (A) (A)
                 (A) (A) (A) (A) (A) (A) (A) (A) (A) (A) (A) (A)
                 (A) (A) (A) (A) (A) (A) (A) (A) (A) (A) (A) (A)
                 (A) (A) (A) (A) (A) (A) (A) (A) (A) (A) (A) (A)
                 (A) (A) (A) (A) (A) (A) (A) (A) (A) (A) (A) (A)
                 (A) (A) (A) (A) (A) (A) (A) (A) (A) (A) (A) (A)
                 (A) (A) (A) (A) (A) (A) (A) (A) (A) (A) (A) (A)
                 (A) (A) (A) (A) (A) (A) (A) (A) (A) (A) (A) (A)
                 (A) (A) (A) (A) (A) (A) (A) (A) (A) (A) (A) (A)
                 (A) (A) (A) (A) (A) (A) (A) (A) (A) (A) (A) (A)
                 (A) (A) (A) (A) (A) (A) (A) (A) (A) (A) (A) (A)
                 (A) (A) (A) (A) (A) (A) (A) (A) (A) (A) (A) (A)
                 (A) (A) (A) (A) (A) (A) (A) (A) (A) (A) (A) (A)
                 (A) (A) (A) (A) (A) (A) (A) (A) (A) (A) (A) (A)
                 (A) (A) (A) (A) (A) (A) (A) (A) (A) (A) (A) (A)
                 (A) (A) (A) (A) (A) (A) (A) (A) (A) (A) (A) (A)
                 (A) (A) (A) (A) (A) (A) (A) (A) (A) (A) (A) (A)
                 (A) (A) (A) (A) (A) (A) (A) (A) (A) (A) (A) (A)
                 (A) (A) (A) (A) (A) (A) (A) (A) (A) (A) (A) (A)
                 (A) (A) (A) (A) (A) (A) (A) (A) (A) (A) (A) (A)
                 (A) (A) (A) (A) (A) (A) (A) (A) (A) (A) (A) (A)
                 (A) (A) (A) (A) (A) (A) (A) (A) (A) (A) (A) (A)
                 (A) (A) (A) (A) (A) (A) (A) (A) (A) (A) (A) (A)
                 (A) (A) (A) (A) (A) (A) (A) (A) (A) (A) (A) (A)
                 (A) (A) (A) (A) (A) (A) (A) (A) (A) (A) (A) (A)
                 (A) (A) (A) (A) (A) (A) (A) (A) (A) (A) (A) (A)
                 (A) (A) (A) (A) (A) (A) (A) (A) (A) (A) (A) (A)
                 (A) (A) (A) (A) (A) (A) (A) (A) (A) (A) (A) (A)
                 (A) (A) (A) (A) (A) (A) (A) (A) (A) (A) (A) (A)
                 (A) (A) (A) (A) (A) (A) (A) (A) (A) (A) (A) (A)
                 (A) (A) (A) (A) (A) (A) (A) (A) (A) (A) (A) (A)
                 (A) (A) (A) (A) (A) (A) (A) (A) (A) (A) (A) (A)
                 (A) (A) (A) (A) (A) (A) (A) (A) (A) (A) (A) (A)
                 (A) (A) (A) (A) (A) (A) (A) (A) (A) (A) (A) (A)
                 (A) (A) (A) (A) (A) (A) (A) (A) (A) (A) (A) (A)
                 (A) (A) (A) (A) (A) (A) (A) (A) (A) (A) (A) (A)
                 (A) (A) (A) (A) (A) (A) (A) (A) (A) (A) (A) (A)
                 (A) (A) (A) (A) (A) (A) (A) (A) (A) (A) (A) (A)
                 (A) (A) (A) (A) (A) (A) (A) (A) (A) (A) (A) (A)
                 (A) (A) (A) (A) (A) (A) (A) (A) (A) (A) (A) (A)
                 (A) (A) (A) (A) (A) (A) (A) (A) (A) (A) (A) (A)
                 (A) (A) (A) (A) (A) (A) (A) (A) (A) (A) (A) (A)
                 (A) (A) (A) (A) (A) (A) (A) (A) (A) (A) (A) (A)
                 (A) (A) (A) (A) (A) (A) (A) (A) (A) (A) (A) (A)
                 (A) (A) (A) (A) (A) (A) (A) (A) (A) (A) (A) (A)
                 (A) (A) (A) (A) (A) (A) (A) (A) (A) (A)
 The electronic state is 1-A.
 Alpha  occ. eigenvalues -- -101.57171-101.56192 -19.20465 -19.18955 -19.18548
 Alpha  occ. eigenvalues --  -19.16458 -19.13316 -19.09632 -14.36630 -10.29169
 Alpha  occ. eigenvalues --  -10.27946 -10.26861 -10.26800 -10.25932 -10.25308
 Alpha  occ. eigenvalues --  -10.24801 -10.24725 -10.24626 -10.23419 -10.23242
 Alpha  occ. eigenvalues --  -10.22126 -10.20638 -10.19499 -10.19492 -10.17994
 Alpha  occ. eigenvalues --  -10.17665  -9.48647  -9.47633  -7.25130  -7.24103
 Alpha  occ. eigenvalues --   -7.24101  -7.24091  -7.23095  -7.23094  -1.14869
 Alpha  occ. eigenvalues --   -1.12330  -1.11610  -1.11299  -1.05446  -1.03502
 Alpha  occ. eigenvalues --   -0.98684  -0.89423  -0.88894  -0.87763  -0.82359
 Alpha  occ. eigenvalues --   -0.81225  -0.79805  -0.79658  -0.77540  -0.74195
 Alpha  occ. eigenvalues --   -0.73917  -0.72437  -0.67161  -0.65881  -0.62924
 Alpha  occ. eigenvalues --   -0.62446  -0.61760  -0.60186  -0.57727  -0.56777
 Alpha  occ. eigenvalues --   -0.55805  -0.54951  -0.54628  -0.53138  -0.52801
 Alpha  occ. eigenvalues --   -0.52466  -0.51524  -0.50877  -0.50432  -0.48996
 Alpha  occ. eigenvalues --   -0.48230  -0.48150  -0.47951  -0.46736  -0.44780
 Alpha  occ. eigenvalues --   -0.43954  -0.43431  -0.42915  -0.42637  -0.42270
 Alpha  occ. eigenvalues --   -0.41979  -0.41555  -0.40977  -0.39924  -0.38579
 Alpha  occ. eigenvalues --   -0.38335  -0.37967  -0.37301  -0.36261  -0.35999
 Alpha  occ. eigenvalues --   -0.35441  -0.34226  -0.33752  -0.33523  -0.32446
 Alpha  occ. eigenvalues --   -0.32014  -0.29606  -0.28869  -0.27704  -0.26714
 Alpha  occ. eigenvalues --   -0.25531  -0.23598  -0.23245
 Alpha virt. eigenvalues --   -0.04433  -0.02792  -0.02329  -0.01979  -0.01684
 Alpha virt. eigenvalues --   -0.01411  -0.00618   0.00043   0.00224   0.01002
 Alpha virt. eigenvalues --    0.01155   0.01566   0.01579   0.02140   0.02397
 Alpha virt. eigenvalues --    0.02787   0.03398   0.03866   0.04066   0.04207
 Alpha virt. eigenvalues --    0.04746   0.05098   0.05653   0.05903   0.06400
 Alpha virt. eigenvalues --    0.06608   0.06978   0.07301   0.07472   0.07975
 Alpha virt. eigenvalues --    0.08027   0.08262   0.08631   0.08930   0.09318
 Alpha virt. eigenvalues --    0.09496   0.09815   0.10047   0.10243   0.10533
 Alpha virt. eigenvalues --    0.10698   0.10939   0.11042   0.11242   0.11378
 Alpha virt. eigenvalues --    0.11499   0.11579   0.11971   0.12056   0.12302
 Alpha virt. eigenvalues --    0.12587   0.12830   0.13092   0.13386   0.13574
 Alpha virt. eigenvalues --    0.13857   0.14159   0.14205   0.14714   0.14808
 Alpha virt. eigenvalues --    0.15079   0.15228   0.15350   0.15571   0.15829
 Alpha virt. eigenvalues --    0.15953   0.16116   0.16284   0.16928   0.16954
 Alpha virt. eigenvalues --    0.17091   0.17397   0.17980   0.18482   0.18715
 Alpha virt. eigenvalues --    0.19078   0.19210   0.19279   0.19796   0.20041
 Alpha virt. eigenvalues --    0.20469   0.20619   0.20943   0.21074   0.21539
 Alpha virt. eigenvalues --    0.21760   0.22187   0.22310   0.23247   0.23363
 Alpha virt. eigenvalues --    0.23668   0.23740   0.23972   0.24240   0.24714
 Alpha virt. eigenvalues --    0.24748   0.24989   0.25374   0.25415   0.25781
 Alpha virt. eigenvalues --    0.26246   0.26487   0.26560   0.27163   0.27529
 Alpha virt. eigenvalues --    0.27817   0.28183   0.28498   0.28721   0.29146
 Alpha virt. eigenvalues --    0.29270   0.29532   0.29670   0.29857   0.30258
 Alpha virt. eigenvalues --    0.30802   0.31190   0.31345   0.31464   0.32073
 Alpha virt. eigenvalues --    0.32190   0.32491   0.32733   0.32874   0.33573
 Alpha virt. eigenvalues --    0.33663   0.33832   0.34332   0.34960   0.35054
 Alpha virt. eigenvalues --    0.35393   0.35804   0.35946   0.36648   0.37004
 Alpha virt. eigenvalues --    0.37838   0.37928   0.38115   0.38365   0.38662
 Alpha virt. eigenvalues --    0.38920   0.39231   0.39688   0.40487   0.40702
 Alpha virt. eigenvalues --    0.41202   0.41728   0.41954   0.42660   0.43016
 Alpha virt. eigenvalues --    0.43463   0.43931   0.44147   0.45423   0.45864
 Alpha virt. eigenvalues --    0.46233   0.46917   0.47091   0.47387   0.47729
 Alpha virt. eigenvalues --    0.48280   0.48795   0.49109   0.49860   0.50425
 Alpha virt. eigenvalues --    0.50552   0.51533   0.52032   0.52785   0.53388
 Alpha virt. eigenvalues --    0.54128   0.54449   0.55860   0.56058   0.56603
 Alpha virt. eigenvalues --    0.56655   0.57196   0.57529   0.58282   0.58764
 Alpha virt. eigenvalues --    0.59242   0.59323   0.60357   0.60510   0.61067
 Alpha virt. eigenvalues --    0.61668   0.61848   0.62299   0.62708   0.63944
 Alpha virt. eigenvalues --    0.64531   0.65605   0.66098   0.66474   0.66663
 Alpha virt. eigenvalues --    0.67481   0.68329   0.68790   0.69303   0.69656
 Alpha virt. eigenvalues --    0.69956   0.70538   0.70911   0.71617   0.72020
 Alpha virt. eigenvalues --    0.72615   0.73097   0.73587   0.74108   0.74627
 Alpha virt. eigenvalues --    0.74989   0.75407   0.76066   0.76487   0.77532
 Alpha virt. eigenvalues --    0.78277   0.78375   0.78874   0.79162   0.80282
 Alpha virt. eigenvalues --    0.80830   0.80940   0.81412   0.83735   0.84516
 Alpha virt. eigenvalues --    0.85225   0.85669   0.85794   0.86619   0.86989
 Alpha virt. eigenvalues --    0.87432   0.87805   0.88095   0.88943   0.89277
 Alpha virt. eigenvalues --    0.89613   0.90418   0.91328   0.91888   0.92173
 Alpha virt. eigenvalues --    0.92667   0.92846   0.93738   0.94616   0.94735
 Alpha virt. eigenvalues --    0.96377   0.96868   0.97102   0.97800   0.98286
 Alpha virt. eigenvalues --    0.99040   0.99981   1.00423   1.00967   1.01448
 Alpha virt. eigenvalues --    1.02350   1.02726   1.03738   1.04146   1.05140
 Alpha virt. eigenvalues --    1.05941   1.06515   1.07256   1.07769   1.08535
 Alpha virt. eigenvalues --    1.09242   1.10085   1.10622   1.11651   1.12165
 Alpha virt. eigenvalues --    1.12977   1.13587   1.14838   1.15418   1.15952
 Alpha virt. eigenvalues --    1.16664   1.17593   1.18517   1.19678   1.20713
 Alpha virt. eigenvalues --    1.21727   1.22930   1.23467   1.23960   1.25650
 Alpha virt. eigenvalues --    1.26369   1.26788   1.28458   1.28814   1.29690
 Alpha virt. eigenvalues --    1.30148   1.30727   1.31897   1.33147   1.33313
[...]
   465. RY*(   2)Cl  22                  0.00156     0.63805   
   466. RY*(   3)Cl  22                  0.00058     0.49126   
   467. RY*(   4)Cl  22                  0.00010     1.68226   
   468. RY*(   5)Cl  22                  0.00006     0.77128   
   469. RY*(   6)Cl  22                  0.00007     1.55269   
   470. RY*(   7)Cl  22                  0.00003     1.24434   
   471. RY*(   8)Cl  22                  0.00003     1.58166   
   472. RY*(   9)Cl  22                  0.00001     0.83894   
   473. RY*(  10)Cl  22                  0.00001     1.14395   
   474. RY*(  11)Cl  22                  0.00000     1.99886   
   475. RY*(  12)Cl  22                  0.00000    24.65421   
   476. RY*(  13)Cl  22                  0.00001     0.91163   
   477. RY*(  14)Cl  22                  0.00000     0.61326   
   478. RY*(  15)Cl  22                  0.00000     2.51631   
   479. RY*(  16)Cl  22                  0.00000    25.11789   
   480. RY*(  17)Cl  22                  0.00001     0.75947   
   481. RY*(  18)Cl  22                  0.00000     2.34711   
   482. RY*(  19)Cl  22                  0.00000    24.89022   
   483. RY*(  20)Cl  22                  0.00000    16.61316   
   484. RY*(  21)Cl  22                  0.00000   208.20263   
   485. RY*(   1) O  23                  0.00396     0.72955   
   486. RY*(   2) O  23                  0.00322     0.81435   
   487. RY*(   3) O  23                  0.00146     1.04557   
   488. RY*(   4) O  23                  0.00070     0.93362   
   489. RY*(   5) O  23                  0.00039     1.28970   
   490. RY*(   6) O  23                  0.00020     2.34728   
   491. RY*(   7) O  23                  0.00017     1.58885   
   492. RY*(   8) O  23                  0.00012     2.05925   
   493. RY*(   9) O  23                  0.00011     1.10628   
   494. RY*(  10) O  23                  0.00006     2.90716   
   495. RY*(  11) O  23                  0.00002     5.27505   
   496. RY*(  12) O  23                  0.00002     3.15569   
   497. RY*(  13) O  23                  0.00001     2.94449   
   498. RY*(  14) O  23                  0.00000     4.94225   
   499. RY*(  15) O  23                  0.00000    49.06302   
   500. RY*(  16) O  23                  0.00001     3.06807   
   501. RY*(  17) O  23                  0.00000     5.13675   
   502. RY*(   1) O  24                  0.00392     0.68541   
   503. RY*(   2) O  24                  0.00369     0.86546   
   504. RY*(   3) O  24                  0.00138     1.23251   
   505. RY*(   4) O  24                  0.00085     0.65973   
   506. RY*(   5) O  24                  0.00041     1.38655   
   507. RY*(   6) O  24                  0.00024     1.96702   
   508. RY*(   7) O  24                  0.00016     2.28218   
   509. RY*(   8) O  24                  0.00014     1.84251   
   510. RY*(   9) O  24                  0.00013     1.14612   
   511. RY*(  10) O  24                  0.00006     2.86736   
   512. RY*(  11) O  24                  0.00001     2.96461   
   513. RY*(  12) O  24                  0.00001     5.07599   
   514. RY*(  13) O  24                  0.00001     5.62592   
   515. RY*(  14) O  24                  0.00002     3.15845   
   516. RY*(  15) O  24                  0.00000    48.90300   
   517. RY*(  16) O  24                  0.00001     2.96053   
   518. RY*(  17) O  24                  0.00000     4.87217   
   519. RY*(   1) C  25                  0.00295     1.20766   
   520. RY*(   2) C  25                  0.00196     1.34189   
   521. RY*(   3) C  25                  0.00159     0.85302   
   522. RY*(   4) C  25                  0.00040     1.01078   
   523. RY*(   5) C  25                  0.00036     1.06517   
   524. RY*(   6) C  25                  0.00013     1.43250   
   525. RY*(   7) C  25                  0.00008     1.01748   
   526. RY*(   8) C  25                  0.00001     2.71562   
   527. RY*(   9) C  25                  0.00001     1.43310   
   528. RY*(  10) C  25                  0.00001     2.34671   
   529. RY*(  11) C  25                  0.00002     1.41672   
   530. RY*(  12) C  25                  0.00001     2.31242   
   531. RY*(  13) C  25                  0.00001     1.72087   
   532. RY*(  14) C  25                  0.00001     0.95378   
   533. RY*(  15) C  25                  0.00001     1.85506   
   534. RY*(  16) C  25                  0.00000     1.85357   
   535. RY*(  17) C  25                  0.00000    22.23569   
   536. RY*(   1) C  26                  0.00299     1.23975   
   537. RY*(   2) C  26                  0.00201     1.37049   
   538. RY*(   3) C  26                  0.00150     0.86083   
   539. RY*(   4) C  26                  0.00040     1.45225   
   540. RY*(   5) C  26                  0.00035     0.59090   
   541. RY*(   6) C  26                  0.00013     1.62041   
   542. RY*(   7) C  26                  0.00007     1.02372   
   543. RY*(   8) C  26                  0.00003     1.34345   
   544. RY*(   9) C  26                  0.00002     2.39737   
   545. RY*(  10) C  26                  0.00001     1.01712   
   546. RY*(  11) C  26                  0.00001     2.35001   
   547. RY*(  12) C  26                  0.00001     2.22282   
   548. RY*(  13) C  26                  0.00000     2.16706   
   549. RY*(  14) C  26                  0.00000    23.08759   
   550. RY*(  15) C  26                  0.00001     0.85304   
   551. RY*(  16) C  26                  0.00000     1.90630   
   552. RY*(  17) C  26                  0.00001     1.91585   
   553. RY*(   1) H  27                  0.00163     1.04703   
   554. RY*(   2) H  27                  0.00028     1.94616   
   555. RY*(   3) H  27                  0.00019     2.14213   
   556. RY*(   4) H  27                  0.00011     2.18508   
   557. RY*(   5) H  27                  0.00011     1.06120   
   558. RY*(   6) H  27                  0.00008     1.60074   
   559. RY*(   1) H  28                  0.00239     0.59165   
   560. RY*(   2) H  28                  0.00037     1.84348   
   561. RY*(   3) H  28                  0.00034     1.84732   
   562. RY*(   4) H  28                  0.00020     1.71813   
   563. RY*(   5) H  28                  0.00014     1.94686   
   564. RY*(   6) H  28                  0.00007     2.25794   
   565. RY*(   1) H  29                  0.00086     0.66692   
   566. RY*(   2) H  29                  0.00026     1.59012   
   567. RY*(   3) H  29                  0.00021     2.17580   
   568. RY*(   4) H  29                  0.00011     1.92959   
   569. RY*(   5) H  29                  0.00008     1.00038   
   570. RY*(   6) H  29                  0.00003     1.99890   
   571. RY*(   1) H  30                  0.00090     0.78873   
   572. RY*(   2) H  30                  0.00025     2.07054   
   573. RY*(   3) H  30                  0.00022     1.60126   
   574. RY*(   4) H  30                  0.00011     2.01074   
   575. RY*(   5) H  30                  0.00004     2.08039   
   576. RY*(   6) H  30                  0.00001     0.77737   
   577. RY*(   1) H  31                  0.00085     0.70816   
   578. RY*(   2) H  31                  0.00026     1.61203   
   579. RY*(   3) H  31                  0.00021     2.17528   
   580. RY*(   4) H  31                  0.00011     1.87381   
   581. RY*(   5) H  31                  0.00008     1.08153   
   582. RY*(   6) H  31                  0.00003     1.99998   
   583. RY*(   1) H  32                  0.00172     0.86731   
   584. RY*(   2) H  32                  0.00067     1.72391   
   585. RY*(   3) H  32                  0.00041     1.96475   
   586. RY*(   4) H  32                  0.00022     1.93354   
   587. RY*(   5) H  32                  0.00009     1.25620   
   588. RY*(   6) H  32                  0.00006     2.53550   
   589. RY*(   1) H  33                  0.00185     1.64011   
   590. RY*(   2) H  33                  0.00147     1.85271   
   591. RY*(   3) H  33                  0.00070     1.96302   
   592. RY*(   4) H  33                  0.00017     1.08082   
   593. RY*(   5) H  33                  0.00009     0.46462   
   594. RY*(   6) H  33                  0.00004     2.71265   
   595. RY*(   1) H  34                  0.00049     0.64108   
   596. RY*(   2) H  34                  0.00030     2.26427   
   597. RY*(   3) H  34                  0.00019     1.59430   
   598. RY*(   4) H  34                  0.00012     1.39950   
   599. RY*(   5) H  34                  0.00008     0.87894   
   600. RY*(   6) H  34                  0.00004     2.49253   
   601. RY*(   1) H  35                  0.00074     1.56038   
   602. RY*(   2) H  35                  0.00026     1.56920   
   603. RY*(   3) H  35                  0.00014     1.64673   
   604. RY*(   4) H  35                  0.00013     2.01476   
   605. RY*(   5) H  35                  0.00006     0.42396   
   606. RY*(   6) H  35                  0.00004     2.20677   
   607. RY*(   1) H  36                  0.00123     0.50975   
   608. RY*(   2) H  36                  0.00026     1.78019   
   609. RY*(   3) H  36                  0.00014     2.16827   
   610. RY*(   4) H  36                  0.00011     1.76298   
   611. RY*(   5) H  36                  0.00005     0.94010   
   612. RY*(   6) H  36                  0.00002     1.99650   
   613. RY*(   1) H  37                  0.00053     0.47392   
   614. RY*(   2) H  37                  0.00019     1.72327   
   615. RY*(   3) H  37                  0.00013     2.17757   
   616. RY*(   4) H  37                  0.00008     2.21248   
   617. RY*(   5) H  37                  0.00002     0.43511   
   618. RY*(   6) H  37                  0.00003     1.98477   
   619. RY*(   1) H  38                  0.00127     0.49297   
   620. RY*(   2) H  38                  0.00026     1.85471   
   621. RY*(   3) H  38                  0.00014     2.19633   
   622. RY*(   4) H  38                  0.00011     1.72031   
   623. RY*(   5) H  38                  0.00004     1.21533   
   624. RY*(   6) H  38                  0.00002     1.62284   
   625. RY*(   1) H  39                  0.00125     0.48641   
   626. RY*(   2) H  39                  0.00027     1.78304   
   627. RY*(   3) H  39                  0.00014     2.22535   
   628. RY*(   4) H  39                  0.00012     1.80633   
   629. RY*(   5) H  39                  0.00005     1.10482   
   630. RY*(   6) H  39                  0.00002     1.75725   
   631. RY*(   1) H  40                  0.00131     0.49056   
   632. RY*(   2) H  40                  0.00026     1.84461   
   633. RY*(   3) H  40                  0.00014     2.21777   
   634. RY*(   4) H  40                  0.00012     1.72370   
   635. RY*(   5) H  40                  0.00004     1.27101   
   636. RY*(   6) H  40                  0.00001     1.58502   
   637. RY*(   1) H  41                  0.00054     0.47423   
   638. RY*(   2) H  41                  0.00019     1.69551   
   639. RY*(   3) H  41                  0.00015     2.20712   
   640. RY*(   4) H  41                  0.00008     2.65377   
   641. RY*(   5) H  41                  0.00003     0.35783   
   642. RY*(   6) H  41                  0.00003     0.47516   
   643. BD*(   1) C   1 - C   2          0.03408     0.52217   
   644. BD*(   1) C   1 - C   6          0.02609     0.53171   
   645. BD*(   2) C   1 - C   6          0.41044    -0.00586  648(v),653(v),190(g),106(g)
                                                    175(v)
   646. BD*(   1) C   1 - O  24          0.02755     0.33109   
   647. BD*(   1) C   2 - C   3          0.03538     0.52258   
   648. BD*(   2) C   2 - C   3          0.43445    -0.01170  645(v),653(v),659(v),143(g)
                                                    658(v),140(g),123(g)
   649. BD*(   1) C   2 - N   7          0.02321     0.38181   
   650. BD*(   1) C   3 - C   4          0.02644     0.52892   
   651. BD*(   1) C   3 - O  23          0.02648     0.34299   
   652. BD*(   1) C   4 - C   5          0.01496     0.54418   
   653. BD*(   2) C   4 - C   5          0.36250     0.00197  645(v),648(v),157(g),175(g)
                                                    190(v),174(g)
   654. BD*(   1) C   4 - H  29          0.01361     0.41713   
   655. BD*(   1) C   5 - C   6          0.01505     0.54255   
   656. BD*(   1) C   5 - H  30          0.01324     0.42460   
   657. BD*(   1) C   6 - H  31          0.01369     0.41660   
   658. BD*(   1) N   7 - C   8          0.02916     0.47227   
   659. BD*(   1) N   7 - H  32          0.02471     0.37644   
   660. BD*(   1) C   8 - C   9          0.02647     0.60226   
   661. BD*(   2) C   8 - C   9          0.30499     0.00871  670(v),241(g),667(v),666(v)
                                                    225(g),307(v),205(v)
   662. BD*(   1) C   8 - C  10          0.03493     0.36891   
   663. BD*(   1) C   9 - C  11          0.07952     0.44643   
   664. BD*(   1) C   9 -Cl  13          0.02821     0.15424   
   665. BD*(   1) C  10 - O  12          0.02819     0.25941   
   666. BD*(   1) C  10 - C  15          0.05196     0.33055   
   667. BD*(   1) C  10 - H  27          0.02821     0.37846   
   668. BD*(   1) C  11 - O  12          0.12010     0.32232  674(r),666(v),665(g),662(v)
                                                    274(g),664(v),660(v),279(g)
   669. BD*(   1) C  11 - O  14          0.01261     0.65226   
   670. BD*(   2) C  11 - O  14          0.28536     0.02328  661(v),275(g),329(g),280(g)
                                                    342(g)
   671. BD*(   1) C  15 - C  16          0.03153     0.41337   
   672. BD*(   1) C  15 - O  17          0.04171     0.26626   
   673. BD*(   1) C  15 - H  28          0.02814     0.36476   
   674. BD*(   1) C  16 - O  18          0.03270     0.32290   
   675. BD*(   1) C  16 - C  21          0.02078     0.60545   
   676. BD*(   2) C  16 - C  21          0.25908     0.04341  680(v),672(v),692(r),451(g)
                                                    691(r),693(r),666(v)
   677. BD*(   1) O  17 - H  33          0.01071     0.42901   
   678. BD*(   1) O  18 - C  19          0.05063     0.34282   
   679. BD*(   1) C  19 - C  20          0.02591     0.58515   
   680. BD*(   2) C  19 - C  20          0.31937     0.00299  676(v),434(g),416(g),464(v)
                                                    432(g),693(r)
   681. BD*(   1) C  19 -Cl  22          0.03498     0.14867   
   682. BD*(   1) C  20 - C  21          0.01121     0.51106   
   683. BD*(   1) C  20 - H  34          0.01171     0.44612   
   684. BD*(   1) C  21 - H  35          0.01204     0.46158   
   685. BD*(   1) O  23 - C  26          0.00918     0.25723   
   686. BD*(   1) O  24 - C  25          0.00939     0.24742   
   687. BD*(   1) C  25 - H  36          0.01678     0.36575   
   688. BD*(   1) C  25 - H  37          0.00828     0.38018   
   689. BD*(   1) C  25 - H  38          0.01650     0.35596   
   690. BD*(   1) C  26 - H  39          0.01733     0.40055   
   691. BD*(   1) C  26 - H  40          0.01697     0.56280   
   692. BD*(   1) C  26 - H  41          0.00854     3.09165   
       -------------------------------
              Total Lewis  202.06390  ( 98.0893%)
        Valence non-Lewis    3.52505  (  1.7112%)
        Rydberg non-Lewis    0.41105  (  0.1995%)
       -------------------------------
            Total unit  1  206.00000  (100.0000%)
           Charge unit  1    0.00000
 Leave Link  607 at Wed Jul 10 17:40:36 2019, MaxMem=  209715200 cpu:      17.0
 (Enter C:\G09W\l9999.exe)
 1|1|UNPC-CCSC-2005544|FOpt|RB3LYP|6-311++G(d,p)|C17H15Cl2N1O6|EDUARDO.
 MELO|10-Jul-2019|0||#p opt b3lyp/6-311++g(d,p) pop=nbo geom=connectivi
 ty||9y.log||0,1|C,-1.2046570237,-2.3330102901,1.1102615889|C,-1.763045
 5336,-1.4381857418,0.1800703298|C,-1.9710432351,-1.8544857927,-1.14755
 69295|C,-1.6267869913,-3.1545573838,-1.5337461801|C,-1.0930439506,-4.0
 256678817,-0.5898545225|C,-0.8776690264,-3.6364988013,0.7290501446|N,-
 2.1477786388,-0.1399811099,0.6072792284|C,-1.5637737713,1.034578984,0.
 2680959299|C,-1.9792647919,2.282336394,0.5785563184|C,-0.2492885427,1.
 1592346206,-0.4733944753|C,-1.032365382,3.2735424331,0.085438981|O,-0.
 0183986325,2.5713568645,-0.5521645392|Cl,-3.4148508444,2.6880985501,1.
 4556979069|O,-1.0345049883,4.4701516884,0.1460016052|C,0.9238291154,0.
 4311112601,0.2257645507|C,2.2461923345,0.7516767287,-0.3862417669|O,0.
 9749446814,0.7052214677,1.6264247692|O,3.1365948931,-0.3063145781,-0.4
 077291114|C,4.2867091596,0.1697782913,-0.9300613032|C,4.1850606593,1.4
 846854422,-1.2523617488|C,2.8494678719,1.8607616361,-0.893037748|Cl,5.
 5773443049,-0.9527491965,-1.0879010665|O,-2.5013677771,-0.9214110808,-
 1.9777114139|O,-1.0009190766,-1.8198460395,2.357825487|C,-0.4798208598
 ,-2.6786521086,3.3755563006|C,-2.8016468752,-1.2865733859,-3.324063825
 7|H,-0.3394713151,0.7771836017,-1.4952337375|H,0.7620671956,-0.6402502
 97,0.0653071979|H,-1.7774360555,-3.4890806289,-2.55017804|H,-0.8323991
 695,-5.0337224138,-0.8908562657|H,-0.4483447033,-4.333522313,1.4341379
 291|H,-2.941832348,-0.0724899303,1.2307222887|H,0.2981646423,0.1701871
 183,2.0621343905|H,4.9550136968,2.1010237847,-1.6853434124|H,2.3954819
 91,2.8325717015,-0.9879460342|H,0.5213662054,-3.0345784515,3.116538868
 8|H,-0.426420569,-2.0678566044,4.2745373099|H,-1.1458277793,-3.5284326
 76,3.5495048665|H,-1.8958092346,-1.5618287454,-3.8729001319|H,-3.52037
 40533,-2.1108122271,-3.3579362839|H,-3.2431665825,-0.4001458889,-3.774
 9394551||Version=IA32W-G09RevA.02|State=1-A|HF=-2083.64313|RMSD=7.595e
 -009|RMSF=9.906e-006|Dipole=-0.9176114,-3.7992562,-0.547136|Quadrupole
 =-2.3641547,-11.3036609,13.6678156,10.5301642,2.2909411,-6.078616|PG=C
 01 [X(C17H15Cl2N1O6)]||@


 THOUGH I SPEAK WITH THE TONGUES OF MEN AND OF ANGELS, 
 AND HAVE NOT LOVE,
 I AM BECOME AS SOUNDING BRASS, A TINKLING CYMBAL.
 AND THOUGH I HAVE THE GIFT OF PROPHECY,
 AND UNDERSTAND ALL MYSTERIES, AND ALL KNOWLEDGE.
 AND THOUGH I HAVE ALL FAITH, SO THAT I COULD REMOVE MOUNTAINS,
 AND HAVE NOT LOVE, I AM NOTHING.
 AND THOUGH I BESTOW ALL MY GOODS TO FEED THE POOR,
 AND THOUGH I GIVE MY BODY TO BE BURNED,
 AND HAVE NOT LOVE IT PROFITETH ME NOTHING.
 LOVE SUFFERETH LONG, AND IS KIND,
 LOVE ENVIETH NOT,
 LOVE VAUNTETH NOT ITSELF, IS NOT PUFFED UP,
 DOTH NOT BEHAVE ITSELF UNSEEMLY, SEEKETH NOT HER OWN,
 IS NOT EASILY PROVOKED, THINKETH NO EVIL,
 REJOICETH NOT IN INIQUITY, BUT REJOICETH IN THE TRUTH,
 BEARETH ALL THINGS, BELIEVETH ALL THINGS,
 HOPETH ALL THINGS, ENDURETH ALL THINGS.
 LOVE NEVER FAILETH, BUT WHETHER THERE BE PROPHECIES, THEY SHALL FAIL, 
 WHETHER THERE BE TONGUES, THEY SHALL CEASE,
 WHETHER THERE BE KNOWLEDGE, IT SHALL VANISH AWAY.
 FOR WE KNOW IN PART, AND WE PROPHESY IN PART.
 BUT WHEN THAT WHICH IS PERFECT IS COME, THEN THAT WHICH IS IN PART 
 SHALL BE DONE AWAY. 
 WHEN I WAS A CHILD, I SPAKE AS A CHILD, I UNDERSTOOD AS A CHILD, 
 I THOUGHT AS A CHILD.
 BUT WHEN I BECAME A MAN, I PUT AWAY CHILDISH THINGS.
 FOR NOW WE SEE THROUGH A GLASS, DARKLY, BUT THEN FACE TO FACE.
 NOW I KNOW IN PART. BUT THEN SHALL I KNOW EVEN AS ALSO I AM KNOWN.
 AND NOW ABIDETH FAITH, HOPE AND LOVE, THESE THREE.
 BUT THE GREATEST OF THESE IS LOVE.

                     I CORINTHIANS 13
 Job cpu time:  0 days 11 hours 19 minutes 13.0 seconds.
 File lengths (MBytes):  RWF=    289 Int=      0 D2E=      0 Chk=     28 Scr=      1
 Normal termination of Gaussian 09 at Wed Jul 10 17:40:36 2019.
