 Entering Link 1 = C:\G09W\l1.exe PID=       744.
  
 Copyright (c) 1988,1990,1992,1993,1995,1998,2003,2009, Gaussian, Inc.
                  All Rights Reserved.
  
 This is part of the Gaussian(R) 09 program.  It is based on
 the Gaussian(R) 03 system (copyright 2003, Gaussian, Inc.),
 the Gaussian(R) 98 system (copyright 1998, Gaussian, Inc.),
 the Gaussian(R) 94 system (copyright 1995, Gaussian, Inc.),
 the Gaussian 92(TM) system (copyright 1992, Gaussian, Inc.),
 the Gaussian 90(TM) system (copyright 1990, Gaussian, Inc.),
 the Gaussian 88(TM) system (copyright 1988, Gaussian, Inc.),
 the Gaussian 86(TM) system (copyright 1986, Carnegie Mellon
 University), and the Gaussian 82(TM) system (copyright 1983,
 Carnegie Mellon University). Gaussian is a federally registered
 trademark of Gaussian, Inc.
  
 This software contains proprietary and confidential information,
 including trade secrets, belonging to Gaussian, Inc.
  
 This software is provided under written license and may be
 used, copied, transmitted, or stored only in accord with that
 written license.
  
 The following legend is applicable only to US Government
 contracts under FAR:
  
                    RESTRICTED RIGHTS LEGEND
  
 Use, reproduction and disclosure by the US Government is
 subject to restrictions as set forth in subparagraphs (a)
 and (c) of the Commercial Computer Software - Restricted
 Rights clause in FAR 52.227-19.
  
 Gaussian, Inc.
 340 Quinnipiac St., Bldg. 40, Wallingford CT 06492
  
  
 ---------------------------------------------------------------
 Warning -- This program may not be used in any manner that
 competes with the business of Gaussian, Inc. or will provide
 assistance to any competitor of Gaussian, Inc.  The licensee
 of this program is prohibited from giving any competitor of
 Gaussian, Inc. access to this program.  By using this program,
 the user acknowledges that Gaussian, Inc. is engaged in the
 business of creating and licensing software in the field of
 computational chemistry and represents and warrants to the
 licensee that it is not a competitor of Gaussian, Inc. and that
 it will not use this program in any manner prohibited above.
 ---------------------------------------------------------------
  

 Cite this work as:
 Gaussian 09, Revision A.02,
 M. J. Frisch, G. W. Trucks, H. B. Schlegel, G. E. Scuseria, 
 M. A. Robb, J. R. Cheeseman, G. Scalmani, V. Barone, B. Mennucci, 
 G. A. Petersson, H. Nakatsuji, M. Caricato, X. Li, H. P. Hratchian, 
 A. F. Izmaylov, J. Bloino, G. Zheng, J. L. Sonnenberg, M. Hada, 
 M. Ehara, K. Toyota, R. Fukuda, J. Hasegawa, M. Ishida, T. Nakajima, 
 Y. Honda, O. Kitao, H. Nakai, T. Vreven, J. A. Montgomery, Jr., 
 J. E. Peralta, F. Ogliaro, M. Bearpark, J. J. Heyd, E. Brothers, 
 K. N. Kudin, V. N. Staroverov, R. Kobayashi, J. Normand, 
 K. Raghavachari, A. Rendell, J. C. Burant, S. S. Iyengar, J. Tomasi, 
 M. Cossi, N. Rega, J. M. Millam, M. Klene, J. E. Knox, J. B. Cross, 
 V. Bakken, C. Adamo, J. Jaramillo, R. Gomperts, R. E. Stratmann, 
 O. Yazyev, A. J. Austin, R. Cammi, C. Pomelli, J. W. Ochterski, 
 R. L. Martin, K. Morokuma, V. G. Zakrzewski, G. A. Voth, 
 P. Salvador, J. J. Dannenberg, S. Dapprich, A. D. Daniels, 
 O. Farkas, J. B. Foresman, J. V. Ortiz, J. Cioslowski, 
 and D. J. Fox, Gaussian, Inc., Wallingford CT, 2009.
 
 ******************************************
 Gaussian 09:  IA32W-G09RevA.02 11-Jun-2009
                10-Jul-2019 
 ******************************************
 %nprocshared=4
 Will use up to    4 processors via shared memory.
 %mem=1600MB
 ----------------------------------------------------
 #p opt b3lyp/6-311++g(d,p) pop=nbo geom=connectivity
 ----------------------------------------------------
 1/14=-1,18=20,19=15,26=3,38=1,57=2/1,3;
 2/9=110,12=2,17=6,18=5,40=1/2;
 3/5=4,6=6,7=1111,11=2,16=1,25=1,30=1,71=1,74=-5/1,2,3;
 4//1;
 5/5=2,38=5/2;
 6/7=2,8=2,9=2,10=2,28=1/1,7;
 7//1,2,3,16;
 1/14=-1,18=20,19=15/3(2);
 2/9=110/2;
 99//99;
 2/9=110/2;
 3/5=4,6=6,7=1111,11=2,16=1,25=1,30=1,71=1,74=-5/1,2,3;
 4/5=5,16=3/1;
 5/5=2,38=5/2;
 7//1,2,3,16;
 1/14=-1,18=20,19=15/3(-5);
 2/9=110/2;
 6/7=2,8=2,9=2,10=2,19=2,28=1/1,7;
 99/9=1/99;
 Leave Link    1 at Wed Jul 10 17:40:36 2019, MaxMem=  209715200 cpu:       0.0
 (Enter C:\G09W\l101.exe)
 ------
 9z.log
 ------
 Symbolic Z-matrix:
 Charge =  0 Multiplicity = 1
 C                     2.16055   3.7639   -0.10117 
 C                     1.43776   3.41379   1.03242 
 C                     0.2568    2.69746   0.93352 
 C                    -0.21631   2.30751  -0.30836 
 C                     0.48714   2.66077  -1.44931 
 C                     1.66207   3.382    -1.34255 
 C                     3.46585   4.51512   0.00999 
 N                    -1.4474    1.59385  -0.43188 
 C                    -1.68924   0.3475    0.01128 
 C                    -0.62206  -0.69355   0.29751 
 O                    -1.36175  -1.83099   0.69264 
 C                    -2.69843  -1.59607   0.68116 
 C                    -2.87755  -0.22045   0.24507 
 O                    -3.48543  -2.42362   0.97695 
 Br                   -4.55259   0.58465   0.06444 
 C                     0.2377   -1.08177  -0.91949 
 O                    -0.57507  -1.50236  -1.96831 
 C                     1.27942  -2.13174  -0.54268 
 C                     2.47108  -1.8299    0.11107 
 N                     3.38779  -2.69192   0.44993 
 C                     3.18533  -3.96497   0.15703 
 C                     2.05304  -4.40654  -0.49494 
 C                     1.09692  -3.4717   -0.84745 
 Br                    2.8683   -0.01991   0.56954 
 H                     0.01225  -0.3867    1.11708 
 H                     0.75282  -0.20059  -1.2688 
 H                     1.79439   3.70703   2.00436 
 H                    -0.29986   2.44768   1.81969 
 H                     0.11168   2.36458  -2.41246 
 H                     2.19951   3.64692  -2.23633 
 H                     3.50159   5.11082   0.91474 
 H                     4.30376   3.82388   0.0356 
 H                     3.61157   5.17743  -0.83581 
 H                    -2.26397   2.1397   -0.60344 
 H                    -1.21738  -2.12093  -1.65685 
 H                     3.96135  -4.64813   0.45235 
 H                     1.92195  -5.44755  -0.72322 
 H                     0.21536  -3.78586  -1.3716 
 
 NAtoms=     38 NQM=     38 NQMF=      0 NMic=      0 NMicF=      0 NTot=     38.
                    Isotopes and Nuclear Properties:
 (Nuclear quadrupole moments (NQMom) in fm**2, nuclear magnetic moments (NMagM)
  in nuclear magnetons)

  Atom         1           2           3           4           5           6           7           8           9          10
 IAtWgt=          12          12          12          12          12          12          12          14          12          12
 AtmWgt=  12.0000000  12.0000000  12.0000000  12.0000000  12.0000000  12.0000000  12.0000000  14.0030740  12.0000000  12.0000000
 NucSpn=           0           0           0           0           0           0           0           2           0           0
 AtZEff=   0.0000000   0.0000000   0.0000000   0.0000000   0.0000000   0.0000000   0.0000000   0.0000000   0.0000000   0.0000000
 NQMom=    0.0000000   0.0000000   0.0000000   0.0000000   0.0000000   0.0000000   0.0000000   2.0440000   0.0000000   0.0000000
 NMagM=    0.0000000   0.0000000   0.0000000   0.0000000   0.0000000   0.0000000   0.0000000   0.4037610   0.0000000   0.0000000

  Atom        11          12          13          14          15          16          17          18          19          20
 IAtWgt=          16          12          12          16          79          12          16          12          12          14
 AtmWgt=  15.9949146  12.0000000  12.0000000  15.9949146  78.9183361  12.0000000  15.9949146  12.0000000  12.0000000  14.0030740
 NucSpn=           0           0           0           0           3           0           0           0           0           2
 AtZEff=   0.0000000   0.0000000   0.0000000   0.0000000   0.0000000   0.0000000   0.0000000   0.0000000   0.0000000   0.0000000
 NQMom=    0.0000000   0.0000000   0.0000000   0.0000000  31.3000000   0.0000000   0.0000000   0.0000000   0.0000000   2.0440000
 NMagM=    0.0000000   0.0000000   0.0000000   0.0000000   2.1063990   0.0000000   0.0000000   0.0000000   0.0000000   0.4037610

  Atom        21          22          23          24          25          26          27          28          29          30
 IAtWgt=          12          12          12          79           1           1           1           1           1           1
 AtmWgt=  12.0000000  12.0000000  12.0000000  78.9183361   1.0078250   1.0078250   1.0078250   1.0078250   1.0078250   1.0078250
 NucSpn=           0           0           0           3           1           1           1           1           1           1
 AtZEff=   0.0000000   0.0000000   0.0000000   0.0000000   0.0000000   0.0000000   0.0000000   0.0000000   0.0000000   0.0000000
 NQMom=    0.0000000   0.0000000   0.0000000  31.3000000   0.0000000   0.0000000   0.0000000   0.0000000   0.0000000   0.0000000
 NMagM=    0.0000000   0.0000000   0.0000000   2.1063990   2.7928460   2.7928460   2.7928460   2.7928460   2.7928460   2.7928460

  Atom        31          32          33          34          35          36          37          38
 IAtWgt=           1           1           1           1           1           1           1           1
 AtmWgt=   1.0078250   1.0078250   1.0078250   1.0078250   1.0078250   1.0078250   1.0078250   1.0078250
 NucSpn=           1           1           1           1           1           1           1           1
 AtZEff=   0.0000000   0.0000000   0.0000000   0.0000000   0.0000000   0.0000000   0.0000000   0.0000000
 NQMom=    0.0000000   0.0000000   0.0000000   0.0000000   0.0000000   0.0000000   0.0000000   0.0000000
 NMagM=    2.7928460   2.7928460   2.7928460   2.7928460   2.7928460   2.7928460   2.7928460   2.7928460
 Leave Link  101 at Wed Jul 10 17:40:37 2019, MaxMem=  209715200 cpu:       0.0
 (Enter C:\G09W\l103.exe)

 GradGradGradGradGradGradGradGradGradGradGradGradGradGradGradGradGradGrad
 Berny optimization.
 Initialization pass.
                           ----------------------------
                           !    Initial Parameters    !
                           ! (Angstroms and Degrees)  !
 --------------------------                            --------------------------
 ! Name  Definition              Value          Derivative Info.                !
 --------------------------------------------------------------------------------
 ! R1    R(1,2)                  1.3892         estimate D2E/DX2                !
 ! R2    R(1,6)                  1.3912         estimate D2E/DX2                !
 ! R3    R(1,7)                  1.5101         estimate D2E/DX2                !
 ! R4    R(2,3)                  1.3848         estimate D2E/DX2                !
 ! R5    R(2,27)                 1.076          estimate D2E/DX2                !
 ! R6    R(3,4)                  1.385          estimate D2E/DX2                !
 ! R7    R(3,28)                 1.0759         estimate D2E/DX2                !
 ! R8    R(4,5)                  1.3861         estimate D2E/DX2                !
 ! R9    R(4,8)                  1.4283         estimate D2E/DX2                !
 ! R10   R(5,6)                  1.3828         estimate D2E/DX2                !
 ! R11   R(5,29)                 1.0753         estimate D2E/DX2                !
 ! R12   R(6,30)                 1.076          estimate D2E/DX2                !
 ! R13   R(7,31)                 1.0838         estimate D2E/DX2                !
 ! R14   R(7,32)                 1.0865         estimate D2E/DX2                !
 ! R15   R(7,33)                 1.0841         estimate D2E/DX2                !
 ! R16   R(8,9)                  1.3447         estimate D2E/DX2                !
 ! R17   R(8,34)                 0.9971         estimate D2E/DX2                !
 ! R18   R(9,10)                 1.5181         estimate D2E/DX2                !
 ! R19   R(9,13)                 1.3376         estimate D2E/DX2                !
 ! R20   R(10,11)                1.4132         estimate D2E/DX2                !
 ! R21   R(10,16)                1.5398         estimate D2E/DX2                !
 ! R22   R(10,25)                1.0808         estimate D2E/DX2                !
 ! R23   R(11,12)                1.3572         estimate D2E/DX2                !
 ! R24   R(12,13)                1.4542         estimate D2E/DX2                !
 ! R25   R(12,14)                1.1797         estimate D2E/DX2                !
 ! R26   R(13,15)                1.8672         estimate D2E/DX2                !
 ! R27   R(16,17)                1.3919         estimate D2E/DX2                !
 ! R28   R(16,18)                1.5263         estimate D2E/DX2                !
 ! R29   R(16,26)                1.0788         estimate D2E/DX2                !
 ! R30   R(17,35)                0.9446         estimate D2E/DX2                !
 ! R31   R(18,19)                1.3923         estimate D2E/DX2                !
 ! R32   R(18,23)                1.3862         estimate D2E/DX2                !
 ! R33   R(19,20)                1.3032         estimate D2E/DX2                !
 ! R34   R(19,24)                1.9089         estimate D2E/DX2                !
 ! R35   R(20,21)                1.3219         estimate D2E/DX2                !
 ! R36   R(21,22)                1.3792         estimate D2E/DX2                !
 ! R37   R(21,36)                1.0752         estimate D2E/DX2                !
 ! R38   R(22,23)                1.3829         estimate D2E/DX2                !
 ! R39   R(22,37)                1.0738         estimate D2E/DX2                !
 ! R40   R(23,38)                1.0727         estimate D2E/DX2                !
 ! A1    A(2,1,6)              118.1972         estimate D2E/DX2                !
 ! A2    A(2,1,7)              120.9981         estimate D2E/DX2                !
 ! A3    A(6,1,7)              120.7942         estimate D2E/DX2                !
 ! A4    A(1,2,3)              121.0507         estimate D2E/DX2                !
 ! A5    A(1,2,27)             119.7308         estimate D2E/DX2                !
 ! A6    A(3,2,27)             119.2174         estimate D2E/DX2                !
 ! A7    A(2,3,4)              120.0666         estimate D2E/DX2                !
 ! A8    A(2,3,28)             120.1668         estimate D2E/DX2                !
 ! A9    A(4,3,28)             119.7652         estimate D2E/DX2                !
 ! A10   A(3,4,5)              119.535          estimate D2E/DX2                !
 ! A11   A(3,4,8)              120.8402         estimate D2E/DX2                !
 ! A12   A(5,4,8)              119.5747         estimate D2E/DX2                !
 ! A13   A(4,5,6)              120.039          estimate D2E/DX2                !
 ! A14   A(4,5,29)             119.3308         estimate D2E/DX2                !
 ! A15   A(6,5,29)             120.6297         estimate D2E/DX2                !
 ! A16   A(1,6,5)              121.1            estimate D2E/DX2                !
 ! A17   A(1,6,30)             119.6459         estimate D2E/DX2                !
 ! A18   A(5,6,30)             119.2536         estimate D2E/DX2                !
 ! A19   A(1,7,31)             111.3068         estimate D2E/DX2                !
 ! A20   A(1,7,32)             110.5993         estimate D2E/DX2                !
 ! A21   A(1,7,33)             111.2644         estimate D2E/DX2                !
 ! A22   A(31,7,32)            107.7317         estimate D2E/DX2                !
 ! A23   A(31,7,33)            108.1234         estimate D2E/DX2                !
 ! A24   A(32,7,33)            107.661          estimate D2E/DX2                !
 ! A25   A(4,8,9)              126.129          estimate D2E/DX2                !
 ! A26   A(4,8,34)             116.5649         estimate D2E/DX2                !
 ! A27   A(9,8,34)             114.6341         estimate D2E/DX2                !
 ! A28   A(8,9,10)             124.8416         estimate D2E/DX2                !
 ! A29   A(8,9,13)             127.6543         estimate D2E/DX2                !
 ! A30   A(10,9,13)            107.4799         estimate D2E/DX2                !
 ! A31   A(9,10,11)            103.6933         estimate D2E/DX2                !
 ! A32   A(9,10,16)            114.6072         estimate D2E/DX2                !
 ! A33   A(9,10,25)            111.1511         estimate D2E/DX2                !
 ! A34   A(11,10,16)           108.0785         estimate D2E/DX2                !
 ! A35   A(11,10,25)           108.8855         estimate D2E/DX2                !
 ! A36   A(16,10,25)           110.0724         estimate D2E/DX2                !
 ! A37   A(10,11,12)           111.9521         estimate D2E/DX2                !
 ! A38   A(11,12,13)           106.7134         estimate D2E/DX2                !
 ! A39   A(11,12,14)           122.2414         estimate D2E/DX2                !
 ! A40   A(13,12,14)           131.0425         estimate D2E/DX2                !
 ! A41   A(9,13,12)            110.1602         estimate D2E/DX2                !
 ! A42   A(9,13,15)            126.6511         estimate D2E/DX2                !
 ! A43   A(12,13,15)           123.188          estimate D2E/DX2                !
 ! A44   A(10,16,17)           110.2234         estimate D2E/DX2                !
 ! A45   A(10,16,18)           111.0636         estimate D2E/DX2                !
 ! A46   A(10,16,26)           108.4565         estimate D2E/DX2                !
 ! A47   A(17,16,18)           112.1284         estimate D2E/DX2                !
 ! A48   A(17,16,26)           106.3583         estimate D2E/DX2                !
 ! A49   A(18,16,26)           108.4174         estimate D2E/DX2                !
 ! A50   A(16,17,35)           110.2725         estimate D2E/DX2                !
 ! A51   A(16,18,19)           123.4315         estimate D2E/DX2                !
 ! A52   A(16,18,23)           121.3872         estimate D2E/DX2                !
 ! A53   A(19,18,23)           115.1792         estimate D2E/DX2                !
 ! A54   A(18,19,20)           125.5043         estimate D2E/DX2                !
 ! A55   A(18,19,24)           119.7631         estimate D2E/DX2                !
 ! A56   A(20,19,24)           114.7311         estimate D2E/DX2                !
 ! A57   A(19,20,21)           118.143          estimate D2E/DX2                !
 ! A58   A(20,21,22)           122.6034         estimate D2E/DX2                !
 ! A59   A(20,21,36)           116.1348         estimate D2E/DX2                !
 ! A60   A(22,21,36)           121.261          estimate D2E/DX2                !
 ! A61   A(21,22,23)           118.1442         estimate D2E/DX2                !
 ! A62   A(21,22,37)           120.7391         estimate D2E/DX2                !
 ! A63   A(23,22,37)           121.1164         estimate D2E/DX2                !
 ! A64   A(18,23,22)           120.4227         estimate D2E/DX2                !
 ! A65   A(18,23,38)           119.9162         estimate D2E/DX2                !
 ! A66   A(22,23,38)           119.656          estimate D2E/DX2                !
 ! D1    D(6,1,2,3)              0.3676         estimate D2E/DX2                !
 ! D2    D(6,1,2,27)          -179.2527         estimate D2E/DX2                !
 ! D3    D(7,1,2,3)           -178.4601         estimate D2E/DX2                !
 ! D4    D(7,1,2,27)             1.9195         estimate D2E/DX2                !
 ! D5    D(2,1,6,5)             -0.698          estimate D2E/DX2                !
 ! D6    D(2,1,6,30)           179.5724         estimate D2E/DX2                !
 ! D7    D(7,1,6,5)            178.1322         estimate D2E/DX2                !
 ! D8    D(7,1,6,30)            -1.5974         estimate D2E/DX2                !
 ! D9    D(2,1,7,31)           -26.8327         estimate D2E/DX2                !
 ! D10   D(2,1,7,32)            92.8916         estimate D2E/DX2                !
 ! D11   D(2,1,7,33)          -147.5007         estimate D2E/DX2                !
 ! D12   D(6,1,7,31)           154.3701         estimate D2E/DX2                !
 ! D13   D(6,1,7,32)           -85.9057         estimate D2E/DX2                !
 ! D14   D(6,1,7,33)            33.702          estimate D2E/DX2                !
 ! D15   D(1,2,3,4)              0.5751         estimate D2E/DX2                !
 ! D16   D(1,2,3,28)          -179.0052         estimate D2E/DX2                !
 ! D17   D(27,2,3,4)          -179.8027         estimate D2E/DX2                !
 ! D18   D(27,2,3,28)            0.6171         estimate D2E/DX2                !
 ! D19   D(2,3,4,5)             -1.1927         estimate D2E/DX2                !
 ! D20   D(2,3,4,8)           -178.6081         estimate D2E/DX2                !
 ! D21   D(28,3,4,5)           178.3893         estimate D2E/DX2                !
 ! D22   D(28,3,4,8)             0.9739         estimate D2E/DX2                !
 ! D23   D(3,4,5,6)              0.8669         estimate D2E/DX2                !
 ! D24   D(3,4,5,29)          -179.4011         estimate D2E/DX2                !
 ! D25   D(8,4,5,6)            178.3154         estimate D2E/DX2                !
 ! D26   D(8,4,5,29)            -1.9526         estimate D2E/DX2                !
 ! D27   D(3,4,8,9)            -66.6041         estimate D2E/DX2                !
 ! D28   D(3,4,8,34)            93.781          estimate D2E/DX2                !
 ! D29   D(5,4,8,9)            115.9815         estimate D2E/DX2                !
 ! D30   D(5,4,8,34)           -83.6334         estimate D2E/DX2                !
 ! D31   D(4,5,6,1)              0.0854         estimate D2E/DX2                !
 ! D32   D(4,5,6,30)           179.816          estimate D2E/DX2                !
 ! D33   D(29,5,6,1)          -179.6431         estimate D2E/DX2                !
 ! D34   D(29,5,6,30)            0.0876         estimate D2E/DX2                !
 ! D35   D(4,8,9,10)           -21.5859         estimate D2E/DX2                !
 ! D36   D(4,8,9,13)           160.4303         estimate D2E/DX2                !
 ! D37   D(34,8,9,10)          177.7023         estimate D2E/DX2                !
 ! D38   D(34,8,9,13)           -0.2816         estimate D2E/DX2                !
 ! D39   D(8,9,10,11)         -178.2806         estimate D2E/DX2                !
 ! D40   D(8,9,10,16)          -60.7068         estimate D2E/DX2                !
 ! D41   D(8,9,10,25)           64.8809         estimate D2E/DX2                !
 ! D42   D(13,9,10,11)           0.046          estimate D2E/DX2                !
 ! D43   D(13,9,10,16)         117.6198         estimate D2E/DX2                !
 ! D44   D(13,9,10,25)        -116.7925         estimate D2E/DX2                !
 ! D45   D(8,9,13,12)          178.421          estimate D2E/DX2                !
 ! D46   D(8,9,13,15)           -1.8608         estimate D2E/DX2                !
 ! D47   D(10,9,13,12)           0.1557         estimate D2E/DX2                !
 ! D48   D(10,9,13,15)         179.874          estimate D2E/DX2                !
 ! D49   D(9,10,11,12)          -0.248          estimate D2E/DX2                !
 ! D50   D(16,10,11,12)       -122.2784         estimate D2E/DX2                !
 ! D51   D(25,10,11,12)        118.1677         estimate D2E/DX2                !
 ! D52   D(9,10,16,17)         -55.0059         estimate D2E/DX2                !
 ! D53   D(9,10,16,18)        -179.8996         estimate D2E/DX2                !
 ! D54   D(9,10,16,26)          61.058          estimate D2E/DX2                !
 ! D55   D(11,10,16,17)         60.0432         estimate D2E/DX2                !
 ! D56   D(11,10,16,18)        -64.8505         estimate D2E/DX2                !
 ! D57   D(11,10,16,26)        176.1071         estimate D2E/DX2                !
 ! D58   D(25,10,16,17)        178.8453         estimate D2E/DX2                !
 ! D59   D(25,10,16,18)         53.9516         estimate D2E/DX2                !
 ! D60   D(25,10,16,26)        -65.0908         estimate D2E/DX2                !
 ! D61   D(10,11,12,13)          0.3438         estimate D2E/DX2                !
 ! D62   D(10,11,12,14)        179.8135         estimate D2E/DX2                !
 ! D63   D(11,12,13,9)          -0.3098         estimate D2E/DX2                !
 ! D64   D(11,12,13,15)        179.9604         estimate D2E/DX2                !
 ! D65   D(14,12,13,9)        -179.715          estimate D2E/DX2                !
 ! D66   D(14,12,13,15)          0.5551         estimate D2E/DX2                !
 ! D67   D(10,16,17,35)        -47.4739         estimate D2E/DX2                !
 ! D68   D(18,16,17,35)         76.8086         estimate D2E/DX2                !
 ! D69   D(26,16,17,35)       -164.8448         estimate D2E/DX2                !
 ! D70   D(10,16,18,19)        -79.2039         estimate D2E/DX2                !
 ! D71   D(10,16,18,23)        101.3502         estimate D2E/DX2                !
 ! D72   D(17,16,18,19)        156.9821         estimate D2E/DX2                !
 ! D73   D(17,16,18,23)        -22.4638         estimate D2E/DX2                !
 ! D74   D(26,16,18,19)         39.8621         estimate D2E/DX2                !
 ! D75   D(26,16,18,23)       -139.5839         estimate D2E/DX2                !
 ! D76   D(16,18,19,20)       -179.9088         estimate D2E/DX2                !
 ! D77   D(16,18,19,24)         -0.3884         estimate D2E/DX2                !
 ! D78   D(23,18,19,20)         -0.4315         estimate D2E/DX2                !
 ! D79   D(23,18,19,24)        179.089          estimate D2E/DX2                !
 ! D80   D(16,18,23,22)       -179.9095         estimate D2E/DX2                !
 ! D81   D(16,18,23,38)          0.9115         estimate D2E/DX2                !
 ! D82   D(19,18,23,22)          0.6014         estimate D2E/DX2                !
 ! D83   D(19,18,23,38)       -178.5776         estimate D2E/DX2                !
 ! D84   D(18,19,20,21)         -0.0581         estimate D2E/DX2                !
 ! D85   D(24,19,20,21)       -179.5998         estimate D2E/DX2                !
 ! D86   D(19,20,21,22)          0.3908         estimate D2E/DX2                !
 ! D87   D(19,20,21,36)       -179.9195         estimate D2E/DX2                !
 ! D88   D(20,21,22,23)         -0.2036         estimate D2E/DX2                !
 ! D89   D(20,21,22,37)        179.6382         estimate D2E/DX2                !
 ! D90   D(36,21,22,23)       -179.8776         estimate D2E/DX2                !
 ! D91   D(36,21,22,37)         -0.0358         estimate D2E/DX2                !
 ! D92   D(21,22,23,18)         -0.3193         estimate D2E/DX2                !
 ! D93   D(21,22,23,38)        178.8617         estimate D2E/DX2                !
 ! D94   D(37,22,23,18)        179.8395         estimate D2E/DX2                !
 ! D95   D(37,22,23,38)         -0.9795         estimate D2E/DX2                !
 --------------------------------------------------------------------------------
 Trust Radius=3.00D-01 FncErr=1.00D-07 GrdErr=1.00D-06
 Number of steps in this run= 211 maximum allowed number of steps= 228.
 GradGradGradGradGradGradGradGradGradGradGradGradGradGradGradGradGradGrad

 Leave Link  103 at Wed Jul 10 17:40:37 2019, MaxMem=  209715200 cpu:       0.0
 (Enter C:\G09W\l202.exe)
                          Input orientation:                          
 ---------------------------------------------------------------------
 Center     Atomic      Atomic             Coordinates (Angstroms)
 Number     Number       Type             X           Y           Z
 ---------------------------------------------------------------------
      1          6           0        2.160554    3.763897   -0.101165
      2          6           0        1.437759    3.413794    1.032415
      3          6           0        0.256800    2.697464    0.933523
      4          6           0       -0.216305    2.307511   -0.308359
      5          6           0        0.487142    2.660767   -1.449305
      6          6           0        1.662073    3.382000   -1.342553
      7          6           0        3.465845    4.515124    0.009993
      8          7           0       -1.447399    1.593846   -0.431878
      9          6           0       -1.689241    0.347503    0.011283
     10          6           0       -0.622062   -0.693552    0.297508
     11          8           0       -1.361754   -1.830989    0.692636
     12          6           0       -2.698430   -1.596074    0.681161
     13          6           0       -2.877547   -0.220447    0.245070
     14          8           0       -3.485434   -2.423624    0.976945
     15         35           0       -4.552588    0.584650    0.064442
     16          6           0        0.237700   -1.081771   -0.919486
     17          8           0       -0.575067   -1.502362   -1.968307
     18          6           0        1.279415   -2.131736   -0.542677
     19          6           0        2.471076   -1.829903    0.111066
     20          7           0        3.387791   -2.691922    0.449928
     21          6           0        3.185332   -3.964969    0.157029
     22          6           0        2.053042   -4.406540   -0.494943
     23          6           0        1.096922   -3.471696   -0.847453
     24         35           0        2.868297   -0.019912    0.569543
     25          1           0        0.012247   -0.386696    1.117082
     26          1           0        0.752824   -0.200588   -1.268795
     27          1           0        1.794387    3.707028    2.004363
     28          1           0       -0.299858    2.447680    1.819688
     29          1           0        0.111682    2.364578   -2.412459
     30          1           0        2.199508    3.646915   -2.236329
     31          1           0        3.501585    5.110820    0.914737
     32          1           0        4.303756    3.823884    0.035597
     33          1           0        3.611573    5.177428   -0.835810
     34          1           0       -2.263967    2.139699   -0.603442
     35          1           0       -1.217379   -2.120927   -1.656851
     36          1           0        3.961350   -4.648133    0.452354
     37          1           0        1.921945   -5.447551   -0.723218
     38          1           0        0.215360   -3.785863   -1.371601
 ---------------------------------------------------------------------
                    Distance matrix (angstroms):
                    1          2          3          4          5
     1  C    0.000000
     2  C    1.389247   0.000000
     3  C    2.414982   1.384764   0.000000
     4  C    2.795255   2.399472   1.384977   0.000000
     5  C    2.415509   2.762183   2.394217   1.386140   0.000000
     6  C    1.391177   2.385749   2.761142   2.398414   1.382764
     7  C    1.510127   2.524165   3.801942   4.305012   3.800113
     8  N    4.223247   3.712210   2.446750   1.428344   2.432268
     9  C    5.148331   4.496997   3.187463   2.472518   3.495876
    10  C    5.269795   4.653304   3.560323   3.088380   3.941211
    11  O    6.658793   5.954870   4.815042   4.409221   5.308691
    12  C    7.276747   6.506168   5.218385   4.730547   5.727779
    13  C    6.432522   5.696445   4.337315   3.712016   4.742724
    14  O    8.445408   7.636515   6.342850   5.892610   6.893409
    15  Br   7.429759   6.695169   5.324425   4.680874   5.656905
    16  C    5.277074   5.045807   4.209112   3.473734   3.788076
    17  O    6.221200   6.101179   5.172152   4.171243   4.327735
    18  C    5.977443   5.767052   5.152289   4.690309   4.941433
    19  C    5.606431   5.423374   5.106516   4.951376   5.151395
    20  N    6.594499   6.435968   6.251596   6.209576   6.377471
    21  C    7.800782   7.633247   7.318966   7.150645   7.332184
    22  C    8.180627   7.991810   7.465512   7.089657   7.301348
    23  C    7.351331   7.145631   6.475818   5.951002   6.192024
    24  Br   3.907424   3.748470   3.786361   3.962623   4.114813
    25  H    4.829780   4.059923   3.099281   3.056611   4.012343
    26  H    4.366029   4.339177   3.673547   2.855207   2.879327
    27  H    2.137887   1.076036   2.128401   3.369008   3.838147
    28  H    3.387585   2.138338   1.075894   2.134294   3.369138
    29  H    3.390877   3.837511   3.365630   2.130274   1.075344
    30  H    2.138721   3.364416   3.837126   3.368564   2.126991
    31  H    2.155139   2.674532   4.043918   4.814272   4.547342
    32  H    2.148399   3.061986   4.295689   4.780026   4.257266
    33  H    2.154815   3.365433   4.531585   4.813240   4.058575
    34  H    4.739904   4.242891   3.004601   2.075609   2.924995
    35  H    6.961447   6.701869   5.665698   4.736206   5.080656
    36  H    8.620412   8.467565   8.240935   8.149385   8.313029
    37  H    9.235511   9.046553   8.476955   8.055135   8.266238
    38  H    7.899156   7.688213   6.881050   6.200486   6.452824
                    6          7          8          9         10
     6  C    0.000000
     7  C    2.523280   0.000000
     8  N    3.700762   5.733156   0.000000
     9  C    4.719359   6.629025   1.344712   0.000000
    10  C    4.951484   6.627515   2.538774   1.518088   0.000000
    11  O    6.360879   8.002803   3.605740   2.305931   1.413164
    12  C    6.920305   8.706061   3.602711   2.290129   2.296310
    13  C    6.008854   7.919565   2.407331   1.337645   2.305166
    14  O    8.098282   9.869220   4.720004   3.440633   3.413749
    15  Br   6.958938   8.930110   3.302576   2.873642   4.139705
    16  C    4.704580   6.527640   3.199413   2.573375   1.539798
    17  O    5.408637   7.513506   3.564840   2.929533   2.406304
    18  C    5.584578   7.019022   4.618198   3.907226   2.527825
    19  C    5.470962   6.423328   5.231758   4.696732   3.300539
    20  N    6.563811   7.220883   6.521077   5.933529   4.482816
    21  C    7.651602   8.486005   7.260126   6.510001   5.021768
    22  C    7.844275   9.046937   6.947064   6.071398   4.644399
    23  C    6.894757   8.374742   5.683836   4.804832   3.461781
    24  Br   4.084617   4.608331   4.715113   4.606278   3.565165
    25  H    4.793203   6.097608   2.907299   2.157985   1.080838
    26  H    3.696906   5.588714   2.959967   2.811171   2.141642
    27  H    3.365263   2.724757   4.572744   5.233970   5.302611
    28  H    3.836912   4.661528   2.667477   3.100235   3.505451
    29  H    2.140925   4.662996   2.635804   3.631314   4.151441
    30  H    1.076035   2.720911   4.557529   5.573172   5.763787
    31  H    3.386441   1.083832   6.218916   7.102823   7.146759
    32  H    3.012150   1.086537   6.186064   6.928335   6.688760
    33  H    2.698314   1.084097   6.212763   7.221106   7.326423
    34  H    4.183705   6.232952   0.997082   1.979940   3.396303
    35  H    6.218700   8.291449   3.918291   3.016367   2.492252
    36  H    8.543501   9.187300   8.306548   7.555137   6.055605
    37  H    8.855060  10.108220   7.811442   6.867518   5.487655
    38  H    7.312461   9.021133   5.708688   4.756531   3.612421
                   11         12         13         14         15
    11  O    0.000000
    12  C    1.357210   0.000000
    13  C    2.256499   1.454169   0.000000
    14  O    2.223075   1.179704   2.399824   0.000000
    15  Br   4.051094   2.928105   1.867236   3.319818   0.000000
    16  C    2.391342   3.383406   3.435525   4.388479   5.166424
    17  O    2.794189   3.396636   3.441476   4.241871   4.930351
    18  C    2.931249   4.196184   4.642618   5.009814   6.462167
    19  C    3.876701   5.206100   5.587135   6.048327   7.427254
    20  N    4.833042   6.188412   6.738295   6.898620   8.598497
    21  C    5.051409   6.364356   7.126549   6.895442   8.976804
    22  C    4.438991   5.644327   6.510123   6.064085   8.298147
    23  C    3.332999   4.501035   5.249822   5.042308   7.014446
    24  Br   4.603095   5.786639   5.758491   6.805417   7.462584
    25  H    2.038140   3.000065   3.023070   4.049998   4.784275
    26  H    3.313134   4.202483   3.933418   5.286593   5.526438
    27  H    6.507802   7.075250   6.351940   8.155795   7.334619
    28  H    4.550261   4.837493   4.030236   5.881132   4.963616
    29  H    5.423598   5.757949   4.762384   6.881437   5.573024
    30  H    7.160227   7.745352   6.847650   8.916005   7.762848
    31  H    8.478803   9.136584   8.340515  10.275707   9.277873
    32  H    8.031643   8.878249   8.244489  10.029405   9.430180
    33  H    8.728576   9.380707   8.509644  10.556021   9.410504
    34  H    4.273192   3.974288   2.582004   4.981317   2.846407
    35  H    2.371708   2.816963   3.159950   3.488923   4.626728
    36  H    6.027393   7.329399   8.149717   7.789623  10.000982
    37  H    5.085946   6.176894   7.162075   6.424518   8.884111
    38  H    3.251138   4.183202   4.989177   4.589906   6.625476
                   16         17         18         19         20
    16  C    0.000000
    17  O    1.391946   0.000000
    18  C    1.526297   2.422320   0.000000
    19  C    2.570935   3.702710   1.392314   0.000000
    20  N    3.793541   4.792406   2.396732   1.303177   0.000000
    21  C    4.261484   4.972131   2.735480   2.251839   1.321903
    22  C    3.811796   4.184735   2.403229   2.679750   2.369441
    23  C    2.540707   2.816050   1.386249   2.345750   2.745783
    24  Br   3.203871   4.527151   2.867295   1.908940   2.724669
    25  H    2.163693   3.333058   2.721338   3.023368   4.141673
    26  H    1.078820   1.986763   2.129290   2.740634   4.012955
    27  H    5.822780   6.966646   6.390913   5.890678   6.775084
    28  H    4.499896   5.479733   5.389427   5.375424   6.472288
    29  H    3.757948   3.952483   5.007647   5.434021   6.670408
    30  H    5.286136   5.855353   6.091620   5.964859   6.986333
    31  H    7.236401   8.286447   7.714708   7.062682   7.817402
    32  H    6.442860   7.495828   6.704510   5.943881   6.592905
    33  H    7.111089   7.964302   7.677810   7.162402   7.976833
    34  H    4.090977   4.240265   5.550172   6.220040   7.509762
    35  H    1.934117   0.944559   2.734133   4.100601   5.096287
    36  H    5.335396   6.027815   3.809871   3.206215   2.038563
    37  H    4.683507   4.832166   3.382317   3.752992   3.334437
    38  H    2.741719   2.489018   2.134353   3.333517   3.818245
                   21         22         23         24         25
    21  C    0.000000
    22  C    1.379178   0.000000
    23  C    2.369337   1.382882   0.000000
    24  Br   3.979215   4.586968   4.130431   0.000000
    25  H    4.877931   4.787757   3.814858   2.931101   0.000000
    26  H    4.703258   4.469837   3.316034   2.808444   2.505095
    27  H    8.012921   8.493728   7.755862   4.135465   4.552128
    28  H    7.485523   7.607495   6.641058   4.205839   2.936793
    29  H    7.490845   7.300259   6.122257   4.709252   4.476277
    30  H    8.039950   8.240875   7.336164   4.665385   5.683264
    31  H    9.112853   9.729626   9.085554   5.181180   6.514530
    32  H    7.869679   8.549097   8.018045   4.137682   6.108653
    33  H    9.206022   9.715845   9.007272   5.435055   6.908575
    34  H    8.218281   7.842295   6.545447   5.690338   3.811040
    35  H    5.106321   4.155684   2.799230   5.105276   3.494888
    36  H    1.075237   2.144150   3.358340   4.756987   5.847831
    37  H    2.137529   1.073778   2.144784   5.659159   5.713659
    38  H    3.345074   2.128578   1.072653   4.998850   4.217717
                   26         27         28         29         30
    26  H    0.000000
    27  H    5.202680   0.000000
    28  H    4.202403   2.450699   0.000000
    29  H    2.880817   4.913449   4.252921   0.000000
    30  H    4.222830   4.260423   4.912868   2.456507   0.000000
    31  H    6.366675   2.464232   4.728871   5.486668   3.710477
    32  H    5.523308   3.191650   5.125444   5.069126   3.101746
    33  H    6.105979   3.678427   5.459165   4.758906   2.509552
    34  H    3.875650   5.072219   3.134348   2.994465   4.986043
    35  H    2.778487   7.512675   5.813806   4.738892   6.728961
    36  H    5.747839   8.770016   8.389163   8.497365   8.896119
    37  H    5.403251   9.553130   8.587051   8.195117   9.223658
    38  H    3.626794   8.368624   7.021882   6.238755   7.741498
                   31         32         33         34         35
    31  H    0.000000
    32  H    1.752875   0.000000
    33  H    1.755263   1.752298   0.000000
    34  H    6.661383   6.810274   6.618441   0.000000
    35  H    9.009986   8.287828   8.789703   4.511979   0.000000
    36  H    9.780713   8.489170   9.915814   9.270595   6.136347
    37  H   10.800804   9.602517  10.759075   8.666174   4.668346
    38  H    9.755900   8.752339   9.600100   6.469112   2.214976
                   36         37         38
    36  H    0.000000
    37  H    2.486003   0.000000
    38  H    4.254734   2.468611   0.000000
 Stoichiometry    C17H14Br2N2O3
 Framework group  C1[X(C17H14Br2N2O3)]
 Deg. of freedom   108
 Full point group                 C1      NOp   1
 Largest Abelian subgroup         C1      NOp   1
 Largest concise Abelian subgroup C1      NOp   1
                         Standard orientation:                         
 ---------------------------------------------------------------------
 Center     Atomic      Atomic             Coordinates (Angstroms)
 Number     Number       Type             X           Y           Z
 ---------------------------------------------------------------------
      1          6           0       -2.160554    3.763897    0.101165
      2          6           0       -1.437759    3.413794   -1.032415
      3          6           0       -0.256800    2.697464   -0.933523
      4          6           0        0.216305    2.307511    0.308359
      5          6           0       -0.487142    2.660767    1.449305
      6          6           0       -1.662073    3.382000    1.342553
      7          6           0       -3.465845    4.515124   -0.009993
      8          7           0        1.447399    1.593846    0.431878
      9          6           0        1.689241    0.347503   -0.011283
     10          6           0        0.622062   -0.693552   -0.297508
     11          8           0        1.361754   -1.830989   -0.692636
     12          6           0        2.698430   -1.596074   -0.681161
     13          6           0        2.877547   -0.220447   -0.245070
     14          8           0        3.485434   -2.423624   -0.976945
     15         35           0        4.552588    0.584649   -0.064442
     16          6           0       -0.237700   -1.081771    0.919486
     17          8           0        0.575067   -1.502362    1.968307
     18          6           0       -1.279415   -2.131736    0.542677
     19          6           0       -2.471076   -1.829903   -0.111066
     20          7           0       -3.387791   -2.691922   -0.449928
     21          6           0       -3.185333   -3.964969   -0.157029
     22          6           0       -2.053043   -4.406540    0.494943
     23          6           0       -1.096922   -3.471696    0.847453
     24         35           0       -2.868297   -0.019912   -0.569543
     25          1           0       -0.012247   -0.386696   -1.117082
     26          1           0       -0.752824   -0.200588    1.268795
     27          1           0       -1.794387    3.707028   -2.004363
     28          1           0        0.299858    2.447680   -1.819688
     29          1           0       -0.111682    2.364578    2.412459
     30          1           0       -2.199508    3.646915    2.236329
     31          1           0       -3.501585    5.110820   -0.914737
     32          1           0       -4.303756    3.823884   -0.035597
     33          1           0       -3.611572    5.177428    0.835810
     34          1           0        2.263967    2.139699    0.603442
     35          1           0        1.217379   -2.120927    1.656851
     36          1           0       -3.961351   -4.648133   -0.452354
     37          1           0       -1.921946   -5.447551    0.723218
     38          1           0       -0.215361   -3.785863    1.371601
 ---------------------------------------------------------------------
 Rotational constants (GHZ):      0.2090315      0.1329678      0.0883406
 Leave Link  202 at Wed Jul 10 17:40:37 2019, MaxMem=  209715200 cpu:       0.0
 (Enter C:\G09W\l301.exe)
 Standard basis: 6-311++G(d,p) (5D, 7F)
 Ernie: Thresh=  0.10000D-02 Tol=  0.10000D-05 Strict=F.
 There are   678 symmetry adapted basis functions of A   symmetry.
 Integral buffers will be    262144 words long.
 Raffenetti 2 integral format.
 Two-electron integral symmetry is turned on.
   678 basis functions,  1106 primitive gaussians,   706 cartesian basis functions
   112 alpha electrons      112 beta electrons
       nuclear repulsion energy      3090.7077119899 Hartrees.
 IExCor=  402 DFT=T Ex+Corr=B3LYP ExCW=0 ScaHFX=  0.200000
 ScaDFX=  0.800000  0.720000  1.000000  0.810000 ScalE2=  1.000000  1.000000
 IRadAn=      0 IRanWt=     -1 IRanGd=            0 ICorTp=0
 NAtoms=   38 NActive=   38 NUniq=   38 SFac= 7.50D-01 NAtFMM=   80 NAOKFM=F Big=F
 Leave Link  301 at Wed Jul 10 17:40:37 2019, MaxMem=  209715200 cpu:       0.0
 (Enter C:\G09W\l302.exe)
 NPDir=0 NMtPBC=     1 NCelOv=     1 NCel=       1 NClECP=     1 NCelD=      1
         NCelK=      1 NCelE2=     1 NClLst=     1 CellRange=     0.0.
 One-electron integrals computed using PRISM.
 NBasis=   678 RedAO= T  NBF=   678
 NBsUse=   674 1.00D-06 NBFU=   674
 Precomputing XC quadrature grid using
 IXCGrd= 2 IRadAn=           0 IRanWt=          -1 IRanGd=           0 AccXCQ= 1.00D-10.
 NRdTot=    2484 NPtTot=      324852 NUsed=      336422 NTot=      336438
 NSgBfM=   683   683   683   686   687 NAtAll=    38    38.
 Leave Link  302 at Wed Jul 10 17:40:40 2019, MaxMem=  209715200 cpu:       3.0
 (Enter C:\G09W\l303.exe)
 DipDrv:  MaxL=1.
 Leave Link  303 at Wed Jul 10 17:40:40 2019, MaxMem=  209715200 cpu:       0.0
 (Enter C:\G09W\l401.exe)
 Harris functional with IExCor=  402 diagonalized for initial guess.
 ExpMin= 3.50D-02 ExpMax= 4.40D+05 ExpMxC= 1.51D+04 IAcc=3 IRadAn=         0 AccDes= 0.00D+00
 HarFok:  IExCor=  402 AccDes= 0.00D+00 IRadAn=         0 IDoV= 1
 ScaDFX=  1.000000  1.000000  1.000000  1.000000
 FoFCou: FMM=F IPFlag=           0 FMFlag=      100000 FMFlg1=           0
         NFxFlg=           0 DoJE=T BraDBF=F KetDBF=T FulRan=T
         Omega=  0.000000  0.000000  1.000000  0.000000  0.000000 ICntrl=     500 IOpCl=  0
         NMat0=    1 NMatS0=    1 NMatT0=    0 NMatD0=    1 NMtDS0=    0 NMtDT0=    0
         I1Cent=           4 NGrid=           0.
 Petite list used in FoFCou.
 Harris En= -6140.32139670488    
 Initial guess orbital symmetries:
       Occupied  (A) (A) (A) (A) (A) (A) (A) (A) (A) (A) (A) (A)
                 (A) (A) (A) (A) (A) (A) (A) (A) (A) (A) (A) (A)
                 (A) (A) (A) (A) (A) (A) (A) (A) (A) (A) (A) (A)
                 (A) (A) (A) (A) (A) (A) (A) (A) (A) (A) (A) (A)
                 (A) (A) (A) (A) (A) (A) (A) (A) (A) (A) (A) (A)
                 (A) (A) (A) (A) (A) (A) (A) (A) (A) (A) (A) (A)
                 (A) (A) (A) (A) (A) (A) (A) (A) (A) (A) (A) (A)
                 (A) (A) (A) (A) (A) (A) (A) (A) (A) (A) (A) (A)
                 (A) (A) (A) (A) (A) (A) (A) (A) (A) (A) (A) (A)
                 (A) (A) (A) (A)
       Virtual   (A) (A) (A) (A) (A) (A) (A) (A) (A) (A) (A) (A)
                 (A) (A) (A) (A) (A) (A) (A) (A) (A) (A) (A) (A)
                 (A) (A) (A) (A) (A) (A) (A) (A) (A) (A) (A) (A)
                 (A) (A) (A) (A) (A) (A) (A) (A) (A) (A) (A) (A)
                 (A) (A) (A) (A) (A) (A) (A) (A) (A) (A) (A) (A)
                 (A) (A) (A) (A) (A) (A) (A) (A) (A) (A) (A) (A)
                 (A) (A) (A) (A) (A) (A) (A) (A) (A) (A) (A) (A)
                 (A) (A) (A) (A) (A) (A) (A) (A) (A) (A) (A) (A)
                 (A) (A) (A) (A) (A) (A) (A) (A) (A) (A) (A) (A)
                 (A) (A) (A) (A) (A) (A) (A) (A) (A) (A) (A) (A)
                 (A) (A) (A) (A) (A) (A) (A) (A) (A) (A) (A) (A)
                 (A) (A) (A) (A) (A) (A) (A) (A) (A) (A) (A) (A)
                 (A) (A) (A) (A) (A) (A) (A) (A) (A) (A) (A) (A)
                 (A) (A) (A) (A) (A) (A) (A) (A) (A) (A) (A) (A)
                 (A) (A) (A) (A) (A) (A) (A) (A) (A) (A) (A) (A)
                 (A) (A) (A) (A) (A) (A) (A) (A) (A) (A) (A) (A)
                 (A) (A) (A) (A) (A) (A) (A) (A) (A) (A) (A) (A)
                 (A) (A) (A) (A) (A) (A) (A) (A) (A) (A) (A) (A)
                 (A) (A) (A) (A) (A) (A) (A) (A) (A) (A) (A) (A)
                 (A) (A) (A) (A) (A) (A) (A) (A) (A) (A) (A) (A)
                 (A) (A) (A) (A) (A) (A) (A) (A) (A) (A) (A) (A)
                 (A) (A) (A) (A) (A) (A) (A) (A) (A) (A) (A) (A)
                 (A) (A) (A) (A) (A) (A) (A) (A) (A) (A) (A) (A)
                 (A) (A) (A) (A) (A) (A) (A) (A) (A) (A) (A) (A)
                 (A) (A) (A) (A) (A) (A) (A) (A) (A) (A) (A) (A)
                 (A) (A) (A) (A) (A) (A) (A) (A) (A) (A) (A) (A)
                 (A) (A) (A) (A) (A) (A) (A) (A) (A) (A) (A) (A)
                 (A) (A) (A) (A) (A) (A) (A) (A) (A) (A) (A) (A)
                 (A) (A) (A) (A) (A) (A) (A) (A) (A) (A) (A) (A)
                 (A) (A) (A) (A) (A) (A) (A) (A) (A) (A) (A) (A)
                 (A) (A) (A) (A) (A) (A) (A) (A) (A) (A) (A) (A)
                 (A) (A) (A) (A) (A) (A) (A) (A) (A) (A) (A) (A)
                 (A) (A) (A) (A) (A) (A) (A) (A) (A) (A) (A) (A)
                 (A) (A) (A) (A) (A) (A) (A) (A) (A) (A) (A) (A)
                 (A) (A) (A) (A) (A) (A) (A) (A) (A) (A) (A) (A)
                 (A) (A) (A) (A) (A) (A) (A) (A) (A) (A) (A) (A)
                 (A) (A) (A) (A) (A) (A) (A) (A) (A) (A) (A) (A)
                 (A) (A) (A) (A) (A) (A) (A) (A) (A) (A) (A) (A)
                 (A) (A) (A) (A) (A) (A) (A) (A) (A) (A) (A) (A)
                 (A) (A) (A) (A) (A) (A) (A) (A) (A) (A) (A) (A)
                 (A) (A) (A) (A) (A) (A) (A) (A) (A) (A) (A) (A)
                 (A) (A) (A) (A) (A) (A) (A) (A) (A) (A) (A) (A)
                 (A) (A) (A) (A) (A) (A) (A) (A) (A) (A) (A) (A)
                 (A) (A) (A) (A) (A) (A) (A) (A) (A) (A) (A) (A)
                 (A) (A) (A) (A) (A) (A) (A) (A) (A) (A) (A) (A)
                 (A) (A) (A) (A) (A) (A) (A) (A) (A) (A) (A) (A)
                 (A) (A) (A) (A) (A) (A) (A) (A) (A) (A)
 The electronic state of the initial guess is 1-A.
 Leave Link  401 at Wed Jul 10 17:40:55 2019, MaxMem=  209715200 cpu:      15.0
 (Enter C:\G09W\l502.exe)
 Closed shell SCF:
 Requested convergence on RMS density matrix=1.00D-08 within 128 cycles.
 Requested convergence on MAX density matrix=1.00D-06.
 Requested convergence on             energy=1.00D-06.
 No special actions if energy rises.
 Using DIIS extrapolation, IDIIS=  1040.
 Integral symmetry usage will be decided dynamically.
       336106 words used for storage of precomputed grid.
 IEnd=     1858166 IEndB=     1858166 NGot=   209715200 MDV=   208372817
 LenX=   208372817 LenY=   207873675
 Fock matrices will be formed incrementally for  20 cycles.

 Cycle   1  Pass 1  IDiag  1:
 FoFCou: FMM=F IPFlag=           0 FMFlag=      100000 FMFlg1=           0
         NFxFlg=           0 DoJE=F BraDBF=F KetDBF=F FulRan=T
         Omega=  0.000000  0.000000  1.000000  0.000000  0.000000 ICntrl=       0 IOpCl=  0
         NMat0=    1 NMatS0=    1 NMatT0=    0 NMatD0=    1 NMtDS0=    0 NMtDT0=    0
         I1Cent=           0 NGrid=           0.
 Symmetry not used in FoFCou.
 E= -6139.17605374958    
 DIIS: error= 4.62D-02 at cycle   1 NSaved=   1.
 NSaved= 1 IEnMin= 1 EnMin= -6139.17605374958     IErMin= 1 ErrMin= 4.62D-02
 ErrMax= 4.62D-02 EMaxC= 1.00D-01 BMatC= 3.84D+00 BMatP= 3.84D+00
 IDIUse=3 WtCom= 5.38D-01 WtEn= 4.62D-01
 Coeff-Com:  0.100D+01
 Coeff-En:   0.100D+01
 Coeff:      0.100D+01
 Gap=     0.376 Goal=   None    Shift=    0.000
 GapD=    0.376 DampG=1.000 DampE=0.500 DampFc=0.5000 IDamp=-1.
 Damping current iteration by 5.00D-01
 RMSDP=3.29D-02 MaxDP=3.68D+00              OVMax= 2.59D-01

 Cycle   2  Pass 1  IDiag  1:
 RMSU=  1.16D-02    CP:  1.01D+00
 E= -6139.45682647828     Delta-E=       -0.280772728695 Rises=F Damp=T
 DIIS: error= 2.25D-02 at cycle   2 NSaved=   2.
 NSaved= 2 IEnMin= 2 EnMin= -6139.45682647828     IErMin= 2 ErrMin= 2.25D-02
 ErrMax= 2.25D-02 EMaxC= 1.00D-01 BMatC= 4.70D-01 BMatP= 3.84D+00
 IDIUse=3 WtCom= 7.75D-01 WtEn= 2.25D-01
 Coeff-Com: -0.148D+00 0.115D+01
 Coeff-En:   0.255D+00 0.745D+00
 Coeff:     -0.575D-01 0.106D+01
 Gap=     0.362 Goal=   None    Shift=    0.000
 RMSDP=1.38D-02 MaxDP=1.31D+00 DE=-2.81D-01 OVMax= 2.58D-01

 Cycle   3  Pass 1  IDiag  1:
 RMSU=  4.50D-03    CP:  9.77D-01  2.63D-01
 E= -6139.71932768404     Delta-E=       -0.262501205769 Rises=F Damp=F
 DIIS: error= 2.16D-02 at cycle   3 NSaved=   3.
 NSaved= 3 IEnMin= 3 EnMin= -6139.71932768404     IErMin= 3 ErrMin= 2.16D-02
 ErrMax= 2.16D-02 EMaxC= 1.00D-01 BMatC= 3.16D-01 BMatP= 4.70D-01
 IDIUse=3 WtCom= 7.84D-01 WtEn= 2.16D-01
 Coeff-Com: -0.181D+00 0.583D+00 0.598D+00
 Coeff-En:   0.000D+00 0.106D+00 0.894D+00
 Coeff:     -0.141D+00 0.480D+00 0.662D+00
 Gap=     0.208 Goal=   None    Shift=    0.000
 RMSDP=9.30D-03 MaxDP=9.66D-01 DE=-2.63D-01 OVMax= 2.32D-01

 Cycle   4  Pass 1  IDiag  1:
 RMSU=  4.45D-03    CP:  9.98D-01  6.62D-01  7.28D-01
 E= -6139.79722099166     Delta-E=       -0.077893307614 Rises=F Damp=F
 DIIS: error= 1.83D-02 at cycle   4 NSaved=   4.
 NSaved= 4 IEnMin= 4 EnMin= -6139.79722099166     IErMin= 4 ErrMin= 1.83D-02
 ErrMax= 1.83D-02 EMaxC= 1.00D-01 BMatC= 1.98D-01 BMatP= 3.16D-01
 IDIUse=3 WtCom= 8.17D-01 WtEn= 1.83D-01
 Coeff-Com: -0.970D-01 0.247D+00 0.477D+00 0.373D+00
 Coeff-En:   0.000D+00 0.000D+00 0.423D+00 0.577D+00
 Coeff:     -0.793D-01 0.202D+00 0.467D+00 0.410D+00
 Gap=     0.254 Goal=   None    Shift=    0.000
 RMSDP=7.28D-03 MaxDP=9.76D-01 DE=-7.79D-02 OVMax= 1.18D-01

 Cycle   5  Pass 1  IDiag  1:
 RMSU=  1.70D-03    CP:  8.95D-01  5.73D-01  6.05D-01  2.47D-01
 E= -6139.95347001495     Delta-E=       -0.156249023290 Rises=F Damp=F
 DIIS: error= 2.66D-03 at cycle   5 NSaved=   5.
 NSaved= 5 IEnMin= 5 EnMin= -6139.95347001495     IErMin= 5 ErrMin= 2.66D-03
 ErrMax= 2.66D-03 EMaxC= 1.00D-01 BMatC= 6.87D-03 BMatP= 1.98D-01
 IDIUse=3 WtCom= 9.73D-01 WtEn= 2.66D-02
 Coeff-Com: -0.211D-01 0.525D-01 0.177D+00 0.228D+00 0.564D+00
 Coeff-En:   0.000D+00 0.000D+00 0.000D+00 0.000D+00 0.100D+01
 Coeff:     -0.205D-01 0.511D-01 0.172D+00 0.221D+00 0.576D+00
 Gap=     0.185 Goal=   None    Shift=    0.000
 RMSDP=2.14D-03 MaxDP=2.07D-01 DE=-1.56D-01 OVMax= 2.59D-02

 Cycle   6  Pass 1  IDiag  1:
 RMSU=  6.12D-04    CP:  9.21D-01  5.46D-01  7.20D-01  4.12D-01  6.55D-01
 E= -6139.95935220191     Delta-E=       -0.005882186964 Rises=F Damp=F
 DIIS: error= 8.84D-04 at cycle   6 NSaved=   6.
 NSaved= 6 IEnMin= 6 EnMin= -6139.95935220191     IErMin= 6 ErrMin= 8.84D-04
 ErrMax= 8.84D-04 EMaxC= 1.00D-01 BMatC= 7.30D-04 BMatP= 6.87D-03
 IDIUse=3 WtCom= 9.91D-01 WtEn= 8.84D-03
 Coeff-Com:  0.329D-02-0.758D-02 0.165D-01 0.578D-01 0.335D+00 0.595D+00
 Coeff-En:   0.000D+00 0.000D+00 0.000D+00 0.000D+00 0.553D-01 0.945D+00
 Coeff:      0.326D-02-0.752D-02 0.164D-01 0.573D-01 0.332D+00 0.598D+00
 Gap=     0.184 Goal=   None    Shift=    0.000
 RMSDP=4.71D-04 MaxDP=4.21D-02 DE=-5.88D-03 OVMax= 5.60D-03

 Cycle   7  Pass 1  IDiag  1:
 RMSU=  1.44D-04    CP:  9.23D-01  5.53D-01  7.21D-01  4.11D-01  6.94D-01
                    CP:  5.53D-01
 E= -6139.95992569144     Delta-E=       -0.000573489531 Rises=F Damp=F
 DIIS: error= 2.48D-04 at cycle   7 NSaved=   7.
 NSaved= 7 IEnMin= 7 EnMin= -6139.95992569144     IErMin= 7 ErrMin= 2.48D-04
 ErrMax= 2.48D-04 EMaxC= 1.00D-01 BMatC= 6.56D-05 BMatP= 7.30D-04
 IDIUse=3 WtCom= 9.98D-01 WtEn= 2.48D-03
 Coeff-Com:  0.242D-02-0.547D-02-0.182D-02 0.129D-01 0.139D+00 0.323D+00
 Coeff-Com:  0.531D+00
 Coeff-En:   0.000D+00 0.000D+00 0.000D+00 0.000D+00 0.000D+00 0.000D+00
 Coeff-En:   0.100D+01
 Coeff:      0.241D-02-0.546D-02-0.182D-02 0.128D-01 0.138D+00 0.322D+00
 Coeff:      0.532D+00
 Gap=     0.185 Goal=   None    Shift=    0.000
 RMSDP=2.31D-04 MaxDP=3.25D-02 DE=-5.73D-04 OVMax= 2.38D-03

 Cycle   8  Pass 1  IDiag  1:
 RMSU=  6.29D-05    CP:  9.19D-01  5.54D-01  7.07D-01  4.07D-01  7.06D-01
                    CP:  6.11D-01  5.06D-01
 E= -6139.95997714252     Delta-E=       -0.000051451079 Rises=F Damp=F
 DIIS: error= 1.44D-04 at cycle   8 NSaved=   8.
 NSaved= 8 IEnMin= 8 EnMin= -6139.95997714252     IErMin= 8 ErrMin= 1.44D-04
 ErrMax= 1.44D-04 EMaxC= 1.00D-01 BMatC= 1.24D-05 BMatP= 6.56D-05
 IDIUse=3 WtCom= 9.99D-01 WtEn= 1.44D-03
 Coeff-Com:  0.112D-02-0.250D-02-0.259D-02 0.122D-02 0.515D-01 0.137D+00
 Coeff-Com:  0.345D+00 0.469D+00
 Coeff-En:   0.000D+00 0.000D+00 0.000D+00 0.000D+00 0.000D+00 0.000D+00
 Coeff-En:   0.150D+00 0.850D+00
 Coeff:      0.112D-02-0.249D-02-0.259D-02 0.122D-02 0.514D-01 0.137D+00
 Coeff:      0.345D+00 0.469D+00
 Gap=     0.185 Goal=   None    Shift=    0.000
 RMSDP=6.18D-05 MaxDP=6.75D-03 DE=-5.15D-05 OVMax= 1.16D-03

 Cycle   9  Pass 1  IDiag  1:
 RMSU=  1.41D-05    CP:  9.19D-01  5.54D-01  7.07D-01  4.03D-01  7.15D-01
                    CP:  6.21D-01  5.91D-01  6.29D-01
 E= -6139.95998928574     Delta-E=       -0.000012143217 Rises=F Damp=F
 DIIS: error= 2.55D-05 at cycle   9 NSaved=   9.
 NSaved= 9 IEnMin= 9 EnMin= -6139.95998928574     IErMin= 9 ErrMin= 2.55D-05
 ErrMax= 2.55D-05 EMaxC= 1.00D-01 BMatC= 7.99D-07 BMatP= 1.24D-05
 IDIUse=1 WtCom= 1.00D+00 WtEn= 0.00D+00
 Coeff-Com:  0.375D-03-0.838D-03-0.954D-03-0.639D-03 0.147D-01 0.434D-01
 Coeff-Com:  0.140D+00 0.263D+00 0.541D+00
 Coeff:      0.375D-03-0.838D-03-0.954D-03-0.639D-03 0.147D-01 0.434D-01
 Coeff:      0.140D+00 0.263D+00 0.541D+00
 Gap=     0.185 Goal=   None    Shift=    0.000
 RMSDP=1.78D-05 MaxDP=2.18D-03 DE=-1.21D-05 OVMax= 2.54D-04

 Cycle  10  Pass 1  IDiag  1:
 RMSU=  5.15D-06    CP:  9.19D-01  5.54D-01  7.08D-01  4.04D-01  7.13D-01
                    CP:  6.22D-01  5.91D-01  6.51D-01  6.86D-01
 E= -6139.95998997224     Delta-E=       -0.000000686496 Rises=F Damp=F
 DIIS: error= 7.35D-06 at cycle  10 NSaved=  10.
 NSaved=10 IEnMin=10 EnMin= -6139.95998997224     IErMin=10 ErrMin= 7.35D-06
 ErrMax= 7.35D-06 EMaxC= 1.00D-01 BMatC= 1.01D-07 BMatP= 7.99D-07
 IDIUse=1 WtCom= 1.00D+00 WtEn= 0.00D+00
 Coeff-Com:  0.879D-04-0.206D-03-0.237D-03-0.589D-03 0.212D-02 0.850D-02
 Coeff-Com:  0.401D-01 0.963D-01 0.319D+00 0.535D+00
 Coeff:      0.879D-04-0.206D-03-0.237D-03-0.589D-03 0.212D-02 0.850D-02
 Coeff:      0.401D-01 0.963D-01 0.319D+00 0.535D+00
 Gap=     0.185 Goal=   None    Shift=    0.000
 RMSDP=4.87D-06 MaxDP=4.83D-04 DE=-6.86D-07 OVMax= 9.09D-05

 Cycle  11  Pass 1  IDiag  1:
 RMSU=  1.93D-06    CP:  9.19D-01  5.54D-01  7.08D-01  4.03D-01  7.13D-01
                    CP:  6.19D-01  5.96D-01  6.53D-01  6.92D-01  7.44D-01
 E= -6139.95999005744     Delta-E=       -0.000000085207 Rises=F Damp=F
 DIIS: error= 2.57D-06 at cycle  11 NSaved=  11.
 NSaved=11 IEnMin=11 EnMin= -6139.95999005744     IErMin=11 ErrMin= 2.57D-06
 ErrMax= 2.57D-06 EMaxC= 1.00D-01 BMatC= 6.55D-09 BMatP= 1.01D-07
 IDIUse=1 WtCom= 1.00D+00 WtEn= 0.00D+00
 Coeff-Com:  0.863D-05-0.239D-04-0.453D-04-0.233D-03-0.370D-03 0.239D-03
 Coeff-Com:  0.668D-02 0.229D-01 0.109D+00 0.260D+00 0.602D+00
 Coeff:      0.863D-05-0.239D-04-0.453D-04-0.233D-03-0.370D-03 0.239D-03
 Coeff:      0.668D-02 0.229D-01 0.109D+00 0.260D+00 0.602D+00
 Gap=     0.185 Goal=   None    Shift=    0.000
 RMSDP=1.44D-06 MaxDP=1.45D-04 DE=-8.52D-08 OVMax= 3.27D-05

 Cycle  12  Pass 1  IDiag  1:
 RMSU=  7.08D-07    CP:  9.19D-01  5.53D-01  7.08D-01  4.04D-01  7.13D-01
                    CP:  6.19D-01  5.96D-01  6.55D-01  7.09D-01  7.45D-01
                    CP:  8.17D-01
 E= -6139.95999006265     Delta-E=       -0.000000005208 Rises=F Damp=F
 DIIS: error= 1.42D-06 at cycle  12 NSaved=  12.
 NSaved=12 IEnMin=12 EnMin= -6139.95999006265     IErMin=12 ErrMin= 1.42D-06
 ErrMax= 1.42D-06 EMaxC= 1.00D-01 BMatC= 1.89D-09 BMatP= 6.55D-09
 IDIUse=1 WtCom= 1.00D+00 WtEn= 0.00D+00
 Coeff-Com: -0.574D-05 0.118D-04-0.915D-05-0.568D-04-0.497D-03-0.890D-03
 Coeff-Com: -0.152D-02-0.505D-04 0.200D-01 0.752D-01 0.381D+00 0.527D+00
 Coeff:     -0.574D-05 0.118D-04-0.915D-05-0.568D-04-0.497D-03-0.890D-03
 Coeff:     -0.152D-02-0.505D-04 0.200D-01 0.752D-01 0.381D+00 0.527D+00
 Gap=     0.185 Goal=   None    Shift=    0.000
 RMSDP=5.96D-07 MaxDP=5.44D-05 DE=-5.21D-09 OVMax= 1.23D-05

 Cycle  13  Pass 1  IDiag  1:
 RMSU=  2.24D-07    CP:  9.19D-01  5.54D-01  7.08D-01  4.03D-01  7.13D-01
                    CP:  6.19D-01  5.95D-01  6.55D-01  7.14D-01  7.59D-01
                    CP:  7.95D-01  6.94D-01
 E= -6139.95999006439     Delta-E=       -0.000000001741 Rises=F Damp=F
 DIIS: error= 4.45D-07 at cycle  13 NSaved=  13.
 NSaved=13 IEnMin=13 EnMin= -6139.95999006439     IErMin=13 ErrMin= 4.45D-07
 ErrMax= 4.45D-07 EMaxC= 1.00D-01 BMatC= 1.48D-10 BMatP= 1.89D-09
 IDIUse=1 WtCom= 1.00D+00 WtEn= 0.00D+00
 Coeff-Com: -0.578D-05 0.127D-04 0.291D-05-0.441D-05-0.270D-03-0.576D-03
 Coeff-Com: -0.163D-02-0.274D-02-0.135D-02 0.106D-01 0.140D+00 0.278D+00
 Coeff-Com:  0.577D+00
 Coeff:     -0.578D-05 0.127D-04 0.291D-05-0.441D-05-0.270D-03-0.576D-03
 Coeff:     -0.163D-02-0.274D-02-0.135D-02 0.106D-01 0.140D+00 0.278D+00
 Coeff:      0.577D+00
 Gap=     0.185 Goal=   None    Shift=    0.000
 RMSDP=2.73D-07 MaxDP=2.30D-05 DE=-1.74D-09 OVMax= 4.51D-06

 Cycle  14  Pass 1  IDiag  1:
 RMSU=  8.52D-08    CP:  9.19D-01  5.53D-01  7.08D-01  4.04D-01  7.13D-01
                    CP:  6.19D-01  5.95D-01  6.55D-01  7.12D-01  7.58D-01
                    CP:  8.27D-01  7.40D-01  7.18D-01
 E= -6139.95999006467     Delta-E=       -0.000000000273 Rises=F Damp=F
 DIIS: error= 1.56D-07 at cycle  14 NSaved=  14.
 NSaved=14 IEnMin=14 EnMin= -6139.95999006467     IErMin=14 ErrMin= 1.56D-07
 ErrMax= 1.56D-07 EMaxC= 1.00D-01 BMatC= 2.60D-11 BMatP= 1.48D-10
 IDIUse=1 WtCom= 1.00D+00 WtEn= 0.00D+00
 Coeff-Com: -0.242D-05 0.536D-05 0.172D-05 0.347D-05-0.968D-04-0.218D-03
 Coeff-Com: -0.727D-03-0.157D-02-0.307D-02-0.305D-02 0.371D-01 0.988D-01
 Coeff-Com:  0.349D+00 0.523D+00
 Coeff:     -0.242D-05 0.536D-05 0.172D-05 0.347D-05-0.968D-04-0.218D-03
 Coeff:     -0.727D-03-0.157D-02-0.307D-02-0.305D-02 0.371D-01 0.988D-01
 Coeff:      0.349D+00 0.523D+00
 Gap=     0.185 Goal=   None    Shift=    0.000
 RMSDP=8.58D-08 MaxDP=8.50D-06 DE=-2.73D-10 OVMax= 1.43D-06

 Cycle  15  Pass 1  IDiag  1:
 RMSU=  3.20D-08    CP:  9.19D-01  5.54D-01  7.08D-01  4.04D-01  7.13D-01
                    CP:  6.19D-01  5.95D-01  6.55D-01  7.12D-01  7.60D-01
                    CP:  8.26D-01  7.34D-01  7.36D-01  6.62D-01
 E= -6139.95999006444     Delta-E=        0.000000000226 Rises=F Damp=F
 DIIS: error= 5.26D-08 at cycle  15 NSaved=  15.
 NSaved=15 IEnMin=14 EnMin= -6139.95999006467     IErMin=15 ErrMin= 5.26D-08
 ErrMax= 5.26D-08 EMaxC= 1.00D-01 BMatC= 2.35D-12 BMatP= 2.60D-11
 IDIUse=1 WtCom= 1.00D+00 WtEn= 0.00D+00
 Coeff-Com: -0.398D-06 0.893D-06 0.610D-06 0.200D-05-0.150D-04-0.414D-04
 Coeff-Com: -0.169D-03-0.440D-03-0.128D-02-0.275D-02 0.447D-03 0.135D-01
 Coeff-Com:  0.106D+00 0.279D+00 0.606D+00
 Coeff:     -0.398D-06 0.893D-06 0.610D-06 0.200D-05-0.150D-04-0.414D-04
 Coeff:     -0.169D-03-0.440D-03-0.128D-02-0.275D-02 0.447D-03 0.135D-01
 Coeff:      0.106D+00 0.279D+00 0.606D+00
 Gap=     0.185 Goal=   None    Shift=    0.000
 RMSDP=2.82D-08 MaxDP=2.47D-06 DE= 2.26D-10 OVMax= 4.53D-07

 Cycle  16  Pass 1  IDiag  1:
 RMSU=  1.25D-08    CP:  9.19D-01  5.54D-01  7.08D-01  4.04D-01  7.13D-01
                    CP:  6.19D-01  5.95D-01  6.55D-01  7.12D-01  7.60D-01
                    CP:  8.26D-01  7.40D-01  7.28D-01  7.16D-01  8.76D-01
 E= -6139.95999006457     Delta-E=       -0.000000000131 Rises=F Damp=F
 DIIS: error= 2.49D-08 at cycle  16 NSaved=  16.
 NSaved=16 IEnMin=14 EnMin= -6139.95999006467     IErMin=16 ErrMin= 2.49D-08
 ErrMax= 2.49D-08 EMaxC= 1.00D-01 BMatC= 3.12D-13 BMatP= 2.35D-12
 IDIUse=1 WtCom= 1.00D+00 WtEn= 0.00D+00
 Coeff-Com:  0.875D-07-0.177D-06 0.243D-06 0.506D-06 0.530D-05 0.695D-05
 Coeff-Com:  0.494D-05-0.271D-04-0.301D-03-0.109D-02-0.491D-02-0.608D-02
 Coeff-Com:  0.683D-02 0.785D-01 0.319D+00 0.608D+00
 Coeff:      0.875D-07-0.177D-06 0.243D-06 0.506D-06 0.530D-05 0.695D-05
 Coeff:      0.494D-05-0.271D-04-0.301D-03-0.109D-02-0.491D-02-0.608D-02
 Coeff:      0.683D-02 0.785D-01 0.319D+00 0.608D+00
 Gap=     0.185 Goal=   None    Shift=    0.000
 RMSDP=1.32D-08 MaxDP=2.10D-06 DE=-1.31D-10 OVMax= 1.98D-07

 Cycle  17  Pass 1  IDiag  1:
 RMSU=  3.16D-09    CP:  9.19D-01  5.54D-01  7.08D-01  4.04D-01  7.13D-01
                    CP:  6.19D-01  5.95D-01  6.55D-01  7.12D-01  7.60D-01
                    CP:  8.26D-01  7.41D-01  7.37D-01  7.16D-01  8.36D-01
                    CP:  7.46D-01
 E= -6139.95999006428     Delta-E=        0.000000000287 Rises=F Damp=F
 DIIS: error= 9.28D-09 at cycle  17 NSaved=  17.
 NSaved=17 IEnMin=14 EnMin= -6139.95999006467     IErMin=17 ErrMin= 9.28D-09
 ErrMax= 9.28D-09 EMaxC= 1.00D-01 BMatC= 3.65D-14 BMatP= 3.12D-13
 IDIUse=1 WtCom= 1.00D+00 WtEn= 0.00D+00
 Coeff-Com:  0.652D-07-0.135D-06 0.131D-06 0.104D-06 0.395D-05 0.675D-05
 Coeff-Com:  0.144D-04 0.163D-04-0.831D-04-0.386D-03-0.266D-02-0.416D-02
 Coeff-Com: -0.474D-02 0.214D-01 0.124D+00 0.336D+00 0.530D+00
 Coeff:      0.652D-07-0.135D-06 0.131D-06 0.104D-06 0.395D-05 0.675D-05
 Coeff:      0.144D-04 0.163D-04-0.831D-04-0.386D-03-0.266D-02-0.416D-02
 Coeff:     -0.474D-02 0.214D-01 0.124D+00 0.336D+00 0.530D+00
 Gap=     0.185 Goal=   None    Shift=    0.000
 RMSDP=4.08D-09 MaxDP=3.96D-07 DE= 2.87D-10 OVMax= 6.36D-08

 SCF Done:  E(RB3LYP) =  -6139.95999006     A.U. after   17 cycles
             Convg  =    0.4083D-08             -V/T =  2.0015
 KE= 6.130745473205D+03 PE=-2.079818772099D+04 EE= 5.436774545734D+03
 Leave Link  502 at Wed Jul 10 18:15:11 2019, MaxMem=  209715200 cpu:    2056.0
 (Enter C:\G09W\l601.exe)
 Copying SCF densities to generalized density rwf, IOpCl= 0 IROHF=0.

 **********************************************************************

            Population analysis using the SCF density.

 **********************************************************************

 Orbital symmetries:
       Occupied  (A) (A) (A) (A) (A) (A) (A) (A) (A) (A) (A) (A)
                 (A) (A) (A) (A) (A) (A) (A) (A) (A) (A) (A) (A)
                 (A) (A) (A) (A) (A) (A) (A) (A) (A) (A) (A) (A)
                 (A) (A) (A) (A) (A) (A) (A) (A) (A) (A) (A) (A)
                 (A) (A) (A) (A) (A) (A) (A) (A) (A) (A) (A) (A)
                 (A) (A) (A) (A) (A) (A) (A) (A) (A) (A) (A) (A)
                 (A) (A) (A) (A) (A) (A) (A) (A) (A) (A) (A) (A)
                 (A) (A) (A) (A) (A) (A) (A) (A) (A) (A) (A) (A)
                 (A) (A) (A) (A) (A) (A) (A) (A) (A) (A) (A) (A)
                 (A) (A) (A) (A)
       Virtual   (A) (A) (A) (A) (A) (A) (A) (A) (A) (A) (A) (A)
                 (A) (A) (A) (A) (A) (A) (A) (A) (A) (A) (A) (A)
                 (A) (A) (A) (A) (A) (A) (A) (A) (A) (A) (A) (A)
                 (A) (A) (A) (A) (A) (A) (A) (A) (A) (A) (A) (A)
                 (A) (A) (A) (A) (A) (A) (A) (A) (A) (A) (A) (A)
                 (A) (A) (A) (A) (A) (A) (A) (A) (A) (A) (A) (A)
                 (A) (A) (A) (A) (A) (A) (A) (A) (A) (A) (A) (A)
                 (A) (A) (A) (A) (A) (A) (A) (A) (A) (A) (A) (A)
                 (A) (A) (A) (A) (A) (A) (A) (A) (A) (A) (A) (A)
                 (A) (A) (A) (A) (A) (A) (A) (A) (A) (A) (A) (A)
                 (A) (A) (A) (A) (A) (A) (A) (A) (A) (A) (A) (A)
                 (A) (A) (A) (A) (A) (A) (A) (A) (A) (A) (A) (A)
                 (A) (A) (A) (A) (A) (A) (A) (A) (A) (A) (A) (A)
                 (A) (A) (A) (A) (A) (A) (A) (A) (A) (A) (A) (A)
                 (A) (A) (A) (A) (A) (A) (A) (A) (A) (A) (A) (A)
                 (A) (A) (A) (A) (A) (A) (A) (A) (A) (A) (A) (A)
                 (A) (A) (A) (A) (A) (A) (A) (A) (A) (A) (A) (A)
                 (A) (A) (A) (A) (A) (A) (A) (A) (A) (A) (A) (A)
                 (A) (A) (A) (A) (A) (A) (A) (A) (A) (A) (A) (A)
                 (A) (A) (A) (A) (A) (A) (A) (A) (A) (A) (A) (A)
                 (A) (A) (A) (A) (A) (A) (A) (A) (A) (A) (A) (A)
                 (A) (A) (A) (A) (A) (A) (A) (A) (A) (A) (A) (A)
                 (A) (A) (A) (A) (A) (A) (A) (A) (A) (A) (A) (A)
                 (A) (A) (A) (A) (A) (A) (A) (A) (A) (A) (A) (A)
                 (A) (A) (A) (A) (A) (A) (A) (A) (A) (A) (A) (A)
                 (A) (A) (A) (A) (A) (A) (A) (A) (A) (A) (A) (A)
                 (A) (A) (A) (A) (A) (A) (A) (A) (A) (A) (A) (A)
                 (A) (A) (A) (A) (A) (A) (A) (A) (A) (A) (A) (A)
                 (A) (A) (A) (A) (A) (A) (A) (A) (A) (A) (A) (A)
                 (A) (A) (A) (A) (A) (A) (A) (A) (A) (A) (A) (A)
                 (A) (A) (A) (A) (A) (A) (A) (A) (A) (A) (A) (A)
                 (A) (A) (A) (A) (A) (A) (A) (A) (A) (A) (A) (A)
                 (A) (A) (A) (A) (A) (A) (A) (A) (A) (A) (A) (A)
                 (A) (A) (A) (A) (A) (A) (A) (A) (A) (A) (A) (A)
                 (A) (A) (A) (A) (A) (A) (A) (A) (A) (A) (A) (A)
                 (A) (A) (A) (A) (A) (A) (A) (A) (A) (A) (A) (A)
                 (A) (A) (A) (A) (A) (A) (A) (A) (A) (A) (A) (A)
                 (A) (A) (A) (A) (A) (A) (A) (A) (A) (A) (A) (A)
                 (A) (A) (A) (A) (A) (A) (A) (A) (A) (A) (A) (A)
                 (A) (A) (A) (A) (A) (A) (A) (A) (A) (A) (A) (A)
                 (A) (A) (A) (A) (A) (A) (A) (A) (A) (A) (A) (A)
                 (A) (A) (A) (A) (A) (A) (A) (A) (A) (A) (A) (A)
                 (A) (A) (A) (A) (A) (A) (A) (A) (A) (A) (A) (A)
                 (A) (A) (A) (A) (A) (A) (A) (A) (A) (A) (A) (A)
                 (A) (A) (A) (A) (A) (A) (A) (A) (A) (A) (A) (A)
                 (A) (A) (A) (A) (A) (A) (A) (A) (A) (A) (A) (A)
                 (A) (A) (A) (A) (A) (A) (A) (A) (A) (A)
 The electronic state is 1-A.
 Alpha  occ. eigenvalues -- -482.84576-482.83766 -62.49849 -62.49086 -56.31888
 Alpha  occ. eigenvalues --  -56.31491 -56.31490 -56.31103 -56.30747 -56.30715
 Alpha  occ. eigenvalues --  -19.17897 -19.15023 -19.10874 -14.37173 -14.33356
 Alpha  occ. eigenvalues --  -10.30396 -10.27452 -10.27023 -10.26264 -10.25944
 Alpha  occ. eigenvalues --  -10.23720 -10.22653 -10.22536 -10.21748 -10.21067
 Alpha  occ. eigenvalues --  -10.20657 -10.19950 -10.19891 -10.19788 -10.19476
 Alpha  occ. eigenvalues --  -10.19444 -10.18289  -8.70831  -8.70090  -6.53991
 Alpha  occ. eigenvalues --   -6.53193  -6.52662  -6.52650  -6.51990  -6.51903
 Alpha  occ. eigenvalues --   -2.65089  -2.64697  -2.64684  -2.64302  -2.63967
 Alpha  occ. eigenvalues --   -2.63901  -2.63632  -2.63631  -2.62945  -2.62945
 Alpha  occ. eigenvalues --   -1.13626  -1.07261  -1.04681  -0.99344  -0.98992
 Alpha  occ. eigenvalues --   -0.89112  -0.85405  -0.84881  -0.83473  -0.80586
 Alpha  occ. eigenvalues --   -0.79159  -0.77883  -0.77140  -0.75562  -0.71354
 Alpha  occ. eigenvalues --   -0.69869  -0.64870  -0.64486  -0.64364  -0.63729
 Alpha  occ. eigenvalues --   -0.62017  -0.59337  -0.56366  -0.55473  -0.54508
 Alpha  occ. eigenvalues --   -0.54121  -0.53075  -0.51992  -0.50345  -0.49328
 Alpha  occ. eigenvalues --   -0.48733  -0.47093  -0.45883  -0.45278  -0.45133
 Alpha  occ. eigenvalues --   -0.44699  -0.44354  -0.44221  -0.43784  -0.42808
 Alpha  occ. eigenvalues --   -0.41738  -0.41043  -0.39855  -0.39390  -0.38847
 Alpha  occ. eigenvalues --   -0.38566  -0.38115  -0.37304  -0.36917  -0.33719
 Alpha  occ. eigenvalues --   -0.33200  -0.32345  -0.31102  -0.30964  -0.30879
 Alpha  occ. eigenvalues --   -0.30155  -0.28903  -0.28545  -0.28287  -0.27497
 Alpha  occ. eigenvalues --   -0.26859  -0.23827
 Alpha virt. eigenvalues --   -0.05362  -0.04704  -0.04380  -0.04119  -0.02835
 Alpha virt. eigenvalues --   -0.02143  -0.01558  -0.01485  -0.00403  -0.00210
 Alpha virt. eigenvalues --    0.00002   0.00628   0.01088   0.01674   0.02239
 Alpha virt. eigenvalues --    0.02741   0.03336   0.03673   0.03833   0.04305
 Alpha virt. eigenvalues --    0.04911   0.05390   0.05479   0.05929   0.06168
 Alpha virt. eigenvalues --    0.06583   0.06760   0.06857   0.07177   0.07533
 Alpha virt. eigenvalues --    0.07692   0.08108   0.08274   0.08906   0.09197
 Alpha virt. eigenvalues --    0.09265   0.09603   0.09918   0.10109   0.10417
 Alpha virt. eigenvalues --    0.10574   0.10620   0.10958   0.11277   0.11495
 Alpha virt. eigenvalues --    0.11610   0.11760   0.12099   0.12395   0.12564
 Alpha virt. eigenvalues --    0.12625   0.12822   0.13095   0.13481   0.13680
 Alpha virt. eigenvalues --    0.13987   0.14357   0.14558   0.14717   0.15323
 Alpha virt. eigenvalues --    0.15410   0.15811   0.15939   0.16073   0.16370
 Alpha virt. eigenvalues --    0.16677   0.16711   0.17092   0.17346   0.17466
 Alpha virt. eigenvalues --    0.17729   0.18050   0.18263   0.18492   0.19123
 Alpha virt. eigenvalues --    0.19215   0.19762   0.19863   0.20008   0.20212
 Alpha virt. eigenvalues --    0.20908   0.21198   0.21345   0.21774   0.21936
 Alpha virt. eigenvalues --    0.22198   0.22589   0.23158   0.23314   0.23615
 Alpha virt. eigenvalues --    0.23883   0.23997   0.24508   0.24937   0.25180
 Alpha virt. eigenvalues --    0.25451   0.25589   0.25783   0.26103   0.26393
 Alpha virt. eigenvalues --    0.26591   0.26889   0.27341   0.27586   0.27745
 Alpha virt. eigenvalues --    0.28346   0.28538   0.28766   0.29142   0.29178
 Alpha virt. eigenvalues --    0.29627   0.30128   0.30166   0.30322   0.30416
 Alpha virt. eigenvalues --    0.31288   0.31370   0.31767   0.32048   0.32090
 Alpha virt. eigenvalues --    0.32471   0.32970   0.33055   0.33708   0.33895
 Alpha virt. eigenvalues --    0.34433   0.34898   0.35393   0.36013   0.36180
 Alpha virt. eigenvalues --    0.36436   0.36613   0.37365   0.37651   0.37975
 Alpha virt. eigenvalues --    0.38543   0.39435   0.39560   0.40193   0.40359
 Alpha virt. eigenvalues --    0.40548   0.41314   0.42096   0.42192   0.42691
 Alpha virt. eigenvalues --    0.43352   0.43796   0.44716   0.45356   0.46036
 Alpha virt. eigenvalues --    0.46924   0.47140   0.48118   0.48662   0.49830
 Alpha virt. eigenvalues --    0.50069   0.51009   0.51430   0.51850   0.52699
 Alpha virt. eigenvalues --    0.53346   0.53611   0.54311   0.54904   0.55220
 Alpha virt. eigenvalues --    0.56005   0.56141   0.56776   0.57459   0.57724
 Alpha virt. eigenvalues --    0.58529   0.58995   0.59567   0.59919   0.60575
 Alpha virt. eigenvalues --    0.60653   0.61328   0.62018   0.62177   0.62841
 Alpha virt. eigenvalues --    0.63119   0.63807   0.64476   0.64799   0.64974
 Alpha virt. eigenvalues --    0.65534   0.66302   0.66617   0.66678   0.67261
 Alpha virt. eigenvalues --    0.67443   0.67798   0.69105   0.69591   0.69830
 Alpha virt. eigenvalues --    0.70231   0.72004   0.72096   0.72844   0.73265
 Alpha virt. eigenvalues --    0.73473   0.74253   0.74711   0.75361   0.75532
 Alpha virt. eigenvalues --    0.75929   0.76209   0.77010   0.77506   0.77750
 Alpha virt. eigenvalues --    0.78115   0.78647   0.79028   0.79714   0.80727
 Alpha virt. eigenvalues --    0.81014   0.81704   0.82747   0.83452   0.83838
 Alpha virt. eigenvalues --    0.84541   0.85908   0.86252   0.87004   0.87514
 Alpha virt. eigenvalues --    0.88462   0.88564   0.88903   0.89529   0.89825
 Alpha virt. eigenvalues --    0.91160   0.91775   0.92352   0.92816   0.93379
 Alpha virt. eigenvalues --    0.93681   0.94683   0.95315   0.96189   0.96783
 Alpha virt. eigenvalues --    0.97326   0.98112   0.98459   0.98751   1.00504
 Alpha virt. eigenvalues --    1.00704   1.01697   1.02364   1.02585   1.03536
 Alpha virt. eigenvalues --    1.04926   1.05128   1.05732   1.06785   1.06908
 Alpha virt. eigenvalues --    1.08078   1.08717   1.09678   1.10488   1.10702
 Alpha virt. eigenvalues --    1.11276   1.11804   1.13346   1.14348   1.15223
 Alpha virt. eigenvalues --    1.16778   1.17354   1.19682   1.21938   1.22362
 Alpha virt. eigenvalues --    1.22908   1.23533   1.24618   1.26717   1.27516
 Alpha virt. eigenvalues --    1.28742   1.29765   1.30113   1.31971   1.33161
 Alpha virt. eigenvalues --    1.33378   1.35208   1.36086   1.36675   1.37467
 Alpha virt. eigenvalues --    1.37643   1.40139   1.41804   1.43236   1.43853
 Alpha virt. eigenvalues --    1.46308   1.46572   1.48058   1.48907   1.51018
 Alpha virt. eigenvalues --    1.52277   1.53193   1.53896   1.54197   1.54821
 Alpha virt. eigenvalues --    1.55081   1.55342   1.56313   1.56760   1.57763
 Alpha virt. eigenvalues --    1.58239   1.58884   1.59141   1.61033   1.61724
 Alpha virt. eigenvalues --    1.62064   1.63163   1.64713   1.65285   1.66779
 Alpha virt. eigenvalues --    1.67532   1.67841   1.68143   1.68696   1.70929
 Alpha virt. eigenvalues --    1.71101   1.72087   1.73874   1.74173   1.75767
 Alpha virt. eigenvalues --    1.76031   1.76986   1.77166   1.78822   1.79174
 Alpha virt. eigenvalues --    1.80306   1.81383   1.82277   1.82776   1.83309
 Alpha virt. eigenvalues --    1.83917   1.86808   1.87793   1.89671   1.90076
 Alpha virt. eigenvalues --    1.91063   1.92025   1.92528   1.93211   1.93804
 Alpha virt. eigenvalues --    1.94249   1.95269   1.95780   1.96700   1.97527
 Alpha virt. eigenvalues --    1.97718   1.98330   2.00548   2.02091   2.03104
 Alpha virt. eigenvalues --    2.03592   2.04421   2.04636   2.06270   2.07434
 Alpha virt. eigenvalues --    2.07639   2.08437   2.08709   2.09308   2.10302
 Alpha virt. eigenvalues --    2.11606   2.13436   2.14180   2.15262   2.16786
 Alpha virt. eigenvalues --    2.17887   2.18503   2.19919   2.21535   2.22322
 Alpha virt. eigenvalues --    2.22821   2.24985   2.27951   2.29248   2.29873
 Alpha virt. eigenvalues --    2.32363   2.33401   2.34456   2.35778   2.38271
 Alpha virt. eigenvalues --    2.39343   2.40540   2.42877   2.44923   2.46599
 Alpha virt. eigenvalues --    2.47236   2.47840   2.48242   2.50770   2.53785
 Alpha virt. eigenvalues --    2.55546   2.55881   2.56186   2.57438   2.59530
 Alpha virt. eigenvalues --    2.60329   2.61027   2.62429   2.63198   2.65091
 Alpha virt. eigenvalues --    2.66695   2.67320   2.70028   2.70123   2.71269
 Alpha virt. eigenvalues --    2.72379   2.73189   2.74010   2.74929   2.75745
 Alpha virt. eigenvalues --    2.76720   2.77536   2.78106   2.79302   2.80438
[...]
   426. RY*(  12) C  18                  0.00007     2.61513   
   427. RY*(  13) C  18                  0.00008     1.32080   
   428. RY*(  14) C  18                  0.00004     1.38183   
   429. RY*(  15) C  18                  0.00005     1.71654   
   430. RY*(  16) C  18                  0.00001     2.62413   
   431. RY*(  17) C  18                  0.00001    21.74155   
   432. RY*(   1) C  19                  0.01267     0.86473   
   433. RY*(   2) C  19                  0.00753     0.86908   
   434. RY*(   3) C  19                  0.00347     1.02061   
   435. RY*(   4) C  19                  0.00147     1.36982   
   436. RY*(   5) C  19                  0.00118     1.22367   
   437. RY*(   6) C  19                  0.00074     1.87467   
   438. RY*(   7) C  19                  0.00047     1.10844   
   439. RY*(   8) C  19                  0.00012     0.88134   
   440. RY*(   9) C  19                  0.00010     0.98819   
   441. RY*(  10) C  19                  0.00011     3.72399   
   442. RY*(  11) C  19                  0.00007     0.76623   
   443. RY*(  12) C  19                  0.00007     1.38791   
   444. RY*(  13) C  19                  0.00004     1.33607   
   445. RY*(  14) C  19                  0.00002     3.41082   
   446. RY*(  15) C  19                  0.00002     3.54878   
   447. RY*(  16) C  19                  0.00001     2.86209   
   448. RY*(  17) C  19                  0.00000    19.66747   
   449. RY*(   1) N  20                  0.00799     0.61463   
   450. RY*(   2) N  20                  0.00195     1.15694   
   451. RY*(   3) N  20                  0.00123     0.77854   
   452. RY*(   4) N  20                  0.00047     1.65038   
   453. RY*(   5) N  20                  0.00034     1.89404   
   454. RY*(   6) N  20                  0.00016     2.06820   
   455. RY*(   7) N  20                  0.00013     1.85551   
   456. RY*(   8) N  20                  0.00007     2.47422   
   457. RY*(   9) N  20                  0.00005     1.71677   
   458. RY*(  10) N  20                  0.00002     1.84381   
   459. RY*(  11) N  20                  0.00003     1.84574   
   460. RY*(  12) N  20                  0.00002     3.68794   
   461. RY*(  13) N  20                  0.00000     3.47243   
   462. RY*(  14) N  20                  0.00001     2.02614   
   463. RY*(  15) N  20                  0.00000    34.93147   
   464. RY*(  16) N  20                  0.00001     1.64661   
   465. RY*(  17) N  20                  0.00000     3.77035   
   466. RY*(   1) C  21                  0.00775     1.02312   
   467. RY*(   2) C  21                  0.00542     1.09629   
   468. RY*(   3) C  21                  0.00139     1.33556   
   469. RY*(   4) C  21                  0.00099     1.30546   
   470. RY*(   5) C  21                  0.00071     0.90697   
   471. RY*(   6) C  21                  0.00042     0.69034   
   472. RY*(   7) C  21                  0.00021     2.96417   
   473. RY*(   8) C  21                  0.00010     2.23448   
   474. RY*(   9) C  21                  0.00006     1.32935   
   475. RY*(  10) C  21                  0.00006     0.54373   
   476. RY*(  11) C  21                  0.00002     1.66610   
   477. RY*(  12) C  21                  0.00000     2.62370   
   478. RY*(  13) C  21                  0.00001     2.57343   
   479. RY*(  14) C  21                  0.00001     1.74612   
   480. RY*(  15) C  21                  0.00000    21.08181   
   481. RY*(  16) C  21                  0.00000     1.81385   
   482. RY*(  17) C  21                  0.00000     1.46079   
   483. RY*(   1) C  22                  0.00442     1.21822   
   484. RY*(   2) C  22                  0.00189     1.30575   
   485. RY*(   3) C  22                  0.00083     0.72692   
   486. RY*(   4) C  22                  0.00050     0.77094   
   487. RY*(   5) C  22                  0.00035     1.34148   
   488. RY*(   6) C  22                  0.00023     1.16653   
   489. RY*(   7) C  22                  0.00015     1.08707   
   490. RY*(   8) C  22                  0.00011     1.97372   
   491. RY*(   9) C  22                  0.00005     2.83694   
   492. RY*(  10) C  22                  0.00006     2.88992   
   493. RY*(  11) C  22                  0.00002     0.74514   
   494. RY*(  12) C  22                  0.00000     2.52999   
   495. RY*(  13) C  22                  0.00001     1.61987   
   496. RY*(  14) C  22                  0.00000    19.99280   
   497. RY*(  15) C  22                  0.00000     1.23502   
   498. RY*(  16) C  22                  0.00001     3.77520   
   499. RY*(  17) C  22                  0.00001     2.02832   
   500. RY*(   1) C  23                  0.00646     1.13242   
   501. RY*(   2) C  23                  0.00271     0.92680   
   502. RY*(   3) C  23                  0.00108     0.65483   
   503. RY*(   4) C  23                  0.00076     0.73097   
   504. RY*(   5) C  23                  0.00070     1.59936   
   505. RY*(   6) C  23                  0.00035     1.38159   
   506. RY*(   7) C  23                  0.00022     2.07180   
   507. RY*(   8) C  23                  0.00012     3.29938   
   508. RY*(   9) C  23                  0.00008     0.94547   
   509. RY*(  10) C  23                  0.00008     2.09450   
   510. RY*(  11) C  23                  0.00006     1.34752   
   511. RY*(  12) C  23                  0.00004     1.33609   
   512. RY*(  13) C  23                  0.00005     2.34289   
   513. RY*(  14) C  23                  0.00001     1.92753   
   514. RY*(  15) C  23                  0.00000    21.34985   
   515. RY*(  16) C  23                  0.00000     2.78599   
   516. RY*(  17) C  23                  0.00001     1.94499   
   517. RY*(   1)Br  24                  0.00220     0.57739   
   518. RY*(   2)Br  24                  0.00179     0.40944   
   519. RY*(   3)Br  24                  0.00089     0.69381   
   520. RY*(   4)Br  24                  0.00052     0.45190   
   521. RY*(   5)Br  24                  0.00025     0.58259   
   522. RY*(   6)Br  24                  0.00023     0.56933   
   523. RY*(   7)Br  24                  0.00010     0.40287   
   524. RY*(   8)Br  24                  0.00008     0.97722   
   525. RY*(   9)Br  24                  0.00008     1.23928   
   526. RY*(  10)Br  24                  0.00004     0.70457   
   527. RY*(  11)Br  24                  0.00003     1.11406   
   528. RY*(  12)Br  24                  0.00003     0.79086   
   529. RY*(  13)Br  24                  0.00001     2.85736   
   530. RY*(  14)Br  24                  0.00002     0.89512   
   531. RY*(  15)Br  24                  0.00000   285.08810   
   532. RY*(  16)Br  24                  0.00001     2.65308   
   533. RY*(  17)Br  24                  0.00000    11.49807   
   534. RY*(  18)Br  24                  0.00000     2.46417   
   535. RY*(  19)Br  24                  0.00000    11.55849   
   536. RY*(  20)Br  24                  0.00000   285.22098   
   537. RY*(  21)Br  24                  0.00000   285.22395   
   538. RY*(  22)Br  24                  0.00000     4.29327   
   539. RY*(  23)Br  24                  0.00000   975.84987   
   540. RY*(  24)Br  24                  0.00000     4.05316   
   541. RY*(  25)Br  24                  0.00000    14.14842   
   542. RY*(  26)Br  24                  0.00000     4.15593   
   543. RY*(  27)Br  24                  0.00000    84.43052   
   544. RY*(  28)Br  24                  0.00000     4.09004   
   545. RY*(  29)Br  24                  0.00000    11.50039   
   546. RY*(  30)Br  24                  0.00000     4.14717   
   547. RY*(   1) H  25                  0.00153     0.97713   
   548. RY*(   2) H  25                  0.00028     1.89614   
   549. RY*(   3) H  25                  0.00017     2.01868   
   550. RY*(   4) H  25                  0.00014     1.77793   
   551. RY*(   5) H  25                  0.00009     2.19704   
   552. RY*(   6) H  25                  0.00004     1.19795   
   553. RY*(   1) H  26                  0.00180     0.56085   
   554. RY*(   2) H  26                  0.00030     1.86065   
   555. RY*(   3) H  26                  0.00023     1.99723   
   556. RY*(   4) H  26                  0.00017     2.19857   
   557. RY*(   5) H  26                  0.00015     2.28485   
   558. RY*(   6) H  26                  0.00011     0.99846   
   559. RY*(   1) H  27                  0.00085     0.81307   
   560. RY*(   2) H  27                  0.00022     1.51714   
   561. RY*(   3) H  27                  0.00019     2.19508   
   562. RY*(   4) H  27                  0.00012     1.89595   
   563. RY*(   5) H  27                  0.00006     0.61002   
   564. RY*(   6) H  27                  0.00004     2.31236   
   565. RY*(   1) H  28                  0.00074     1.06377   
   566. RY*(   2) H  28                  0.00027     1.24186   
   567. RY*(   3) H  28                  0.00018     1.94051   
   568. RY*(   4) H  28                  0.00011     1.95232   
   569. RY*(   5) H  28                  0.00006     0.79665   
   570. RY*(   6) H  28                  0.00005     2.40728   
   571. RY*(   1) H  29                  0.00084     0.95023   
   572. RY*(   2) H  29                  0.00021     1.77835   
   573. RY*(   3) H  29                  0.00017     1.84713   
   574. RY*(   4) H  29                  0.00012     1.92379   
   575. RY*(   5) H  29                  0.00005     1.78802   
   576. RY*(   6) H  29                  0.00003     1.05113   
   577. RY*(   1) H  30                  0.00082     0.77356   
   578. RY*(   2) H  30                  0.00021     2.24018   
   579. RY*(   3) H  30                  0.00019     1.58511   
   580. RY*(   4) H  30                  0.00013     1.77515   
   581. RY*(   5) H  30                  0.00006     0.44380   
   582. RY*(   6) H  30                  0.00004     2.44569   
   583. RY*(   1) H  31                  0.00089     0.66725   
   584. RY*(   2) H  31                  0.00016     1.97930   
   585. RY*(   3) H  31                  0.00012     1.71990   
   586. RY*(   4) H  31                  0.00009     1.48437   
   587. RY*(   5) H  31                  0.00005     0.76034   
   588. RY*(   6) H  31                  0.00002     2.51339   
   589. RY*(   1) H  32                  0.00092     0.66660   
   590. RY*(   2) H  32                  0.00017     1.83025   
   591. RY*(   3) H  32                  0.00014     1.79025   
   592. RY*(   4) H  32                  0.00009     1.41550   
   593. RY*(   5) H  32                  0.00005     1.79878   
   594. RY*(   6) H  32                  0.00003     1.69570   
   595. RY*(   1) H  33                  0.00091     0.63365   
   596. RY*(   2) H  33                  0.00016     1.89874   
   597. RY*(   3) H  33                  0.00012     1.75817   
   598. RY*(   4) H  33                  0.00009     1.30386   
   599. RY*(   5) H  33                  0.00005     1.27345   
   600. RY*(   6) H  33                  0.00003     2.25861   
   601. RY*(   1) H  34                  0.00152     0.92409   
   602. RY*(   2) H  34                  0.00073     1.67438   
   603. RY*(   3) H  34                  0.00038     1.75232   
   604. RY*(   4) H  34                  0.00023     2.07309   
   605. RY*(   5) H  34                  0.00007     2.46085   
   606. RY*(   6) H  34                  0.00004     0.80498   
   607. RY*(   1) H  35                  0.00197     1.49441   
   608. RY*(   2) H  35                  0.00166     1.01521   
   609. RY*(   3) H  35                  0.00123     1.67276   
   610. RY*(   4) H  35                  0.00040     1.91866   
   611. RY*(   5) H  35                  0.00009     0.75492   
   612. RY*(   6) H  35                  0.00002     2.49290   
   613. RY*(   1) H  36                  0.00104     0.77907   
   614. RY*(   2) H  36                  0.00019     2.14302   
   615. RY*(   3) H  36                  0.00016     1.57696   
   616. RY*(   4) H  36                  0.00009     1.96264   
   617. RY*(   5) H  36                  0.00006     1.89253   
   618. RY*(   6) H  36                  0.00003     0.81685   
   619. RY*(   1) H  37                  0.00094     0.67337   
   620. RY*(   2) H  37                  0.00023     2.31629   
   621. RY*(   3) H  37                  0.00016     1.58036   
   622. RY*(   4) H  37                  0.00010     1.96447   
   623. RY*(   5) H  37                  0.00004     2.23539   
   624. RY*(   6) H  37                  0.00002     0.41289   
   625. RY*(   1) H  38                  0.00146     0.89973   
   626. RY*(   2) H  38                  0.00029     1.98971   
   627. RY*(   3) H  38                  0.00019     1.41526   
   628. RY*(   4) H  38                  0.00014     1.96160   
   629. RY*(   5) H  38                  0.00006     0.92738   
   630. RY*(   6) H  38                  0.00004     2.19817   
   631. BD*(   1) C   1 - C   2          0.02366     0.56489   
   632. BD*(   2) C   1 - C   2          0.33361     0.01930  643(v),638(v),132(g),647(v)
                                                    200(v),648(v)
   633. BD*(   1) C   1 - C   6          0.02421     0.55949   
   634. BD*(   1) C   1 - C   7          0.01570     0.40488   
   635. BD*(   1) C   2 - C   3          0.01405     0.56192   
   636. BD*(   1) C   2 - H  27          0.01418     0.42430   
   637. BD*(   1) C   3 - C   4          0.02804     0.55117   
   638. BD*(   2) C   3 - C   4          0.38131     0.00421  643(v),632(v),149(g),650(v)
                                                    649(v),168(g),183(v)
   639. BD*(   1) C   3 - H  28          0.01292     0.41971   
   640. BD*(   1) C   4 - C   5          0.02556     0.54704   
   641. BD*(   1) C   4 - N   8          0.03098     0.37279   
   642. BD*(   1) C   5 - C   6          0.01356     0.56459   
   643. BD*(   2) C   5 - C   6          0.31698     0.01154  638(v),632(v),200(g),184(g)
                                                    201(g),183(g)
   644. BD*(   1) C   5 - H  29          0.01262     0.42019   
   645. BD*(   1) C   6 - H  30          0.01396     0.42301   
   646. BD*(   1) C   7 - H  31          0.00433     0.39070   
   647. BD*(   1) C   7 - H  32          0.00968     0.38698   
   648. BD*(   1) C   7 - H  33          0.00658     0.38884   
   649. BD*(   1) N   8 - C   9          0.02777     0.46405   
   650. BD*(   1) N   8 - H  34          0.02507     0.36363   
   651. BD*(   1) C   9 - C  10          0.03806     0.35267   
   652. BD*(   1) C   9 - C  13          0.02535     0.58275   
   653. BD*(   2) C   9 - C  13          0.31500    -0.00497  660(v),319(g),655(v),656(v)
                                                    252(g),232(v)
   654. BD*(   1) C  10 - O  11          0.02776     0.24475   
   655. BD*(   1) C  10 - C  16          0.05062     0.31126   
   656. BD*(   1) C  10 - H  25          0.02836     0.37343   
   657. BD*(   1) O  11 - C  12          0.12453     0.29831  654(g),655(v),651(v),301(g)
                                                    652(v),661(v),307(g)
   658. BD*(   1) C  12 - C  13          0.07574     0.43822   
   659. BD*(   1) C  12 - O  14          0.01325     0.63042   
   660. BD*(   2) C  12 - O  14          0.29190     0.00721  653(v),302(g),335(g)
   661. BD*(   1) C  13 -Br  15          0.03139     0.08519   
   662. BD*(   1) C  16 - O  17          0.01995     0.26681   
   663. BD*(   1) C  16 - C  18          0.04304     0.36630   
   664. BD*(   1) C  16 - H  26          0.02556     0.37448   
   665. BD*(   1) O  17 - H  35          0.01172     0.40131   
   666. BD*(   1) C  18 - C  19          0.04181     0.52703   
   667. BD*(   1) C  18 - C  23          0.02461     0.54479   
   668. BD*(   2) C  18 - C  23          0.31327     0.00687  674(v),670(v),655(v),502(g)
                                                    485(v),662(v)
   669. BD*(   1) C  19 - N  20          0.02569     0.53357   
   670. BD*(   2) C  19 - N  20          0.43019    -0.02352  674(v),668(v),451(g),434(g)
                                                    468(v)
   671. BD*(   1) C  19 -Br  24          0.07618     0.05651   
   672. BD*(   1) N  20 - C  21          0.01801     0.51384   
   673. BD*(   1) C  21 - C  22          0.02421     0.55066   
   674. BD*(   2) C  21 - C  22          0.29321     0.00417  668(v),670(v),470(g),487(g)
   675. BD*(   1) C  21 - H  36          0.02260     0.41122   
   676. BD*(   1) C  22 - C  23          0.01485     0.55396   
   677. BD*(   1) C  22 - H  37          0.01302     0.42177   
   678. BD*(   1) C  23 - H  38          0.01529     0.42257   
       -------------------------------
              Total Lewis  219.84855  ( 98.1467%)
        Valence non-Lewis    3.76994  (  1.6830%)
        Rydberg non-Lewis    0.38152  (  0.1703%)
       -------------------------------
            Total unit  1  224.00000  (100.0000%)
           Charge unit  1    0.00000
 Leave Link  607 at Thu Jul 11 12:24:29 2019, MaxMem=  209715200 cpu:      15.0
 (Enter C:\G09W\l9999.exe)
 1|1|UNPC-CCSC-2005544|FOpt|RB3LYP|6-311++G(d,p)|C17H14Br2N2O3|EDUARDO.
 MELO|11-Jul-2019|0||#p opt b3lyp/6-311++g(d,p) pop=nbo geom=connectivi
 ty||9z.log||0,1|C,2.1364706763,3.9271577533,-0.1199640094|C,1.56295198
 65,3.3155048154,0.9981827611|C,0.4182958523,2.5295940233,0.8871663225|
 C,-0.1659748848,2.3228946583,-0.361962446|C,0.3929113075,2.9275243223,
 -1.4904936567|C,1.5247485587,3.7249337754,-1.3636619115|C,3.3851833396
 ,4.7657677013,0.0000807563|N,-1.3689038372,1.5645368105,-0.5004029334|
 C,-1.6238130435,0.3305618221,-0.009863579|C,-0.5724804008,-0.713893090
 8,0.3239538867|O,-1.3307906021,-1.8611060349,0.7404125126|C,-2.7005624
 971,-1.6071580971,0.6529524287|C,-2.8401908166,-0.2390315824,0.1821399
 265|O,-3.5114472739,-2.4427940385,0.9347101108|Br,-4.5070654448,0.5847
 705932,-0.1253447818|C,0.3114856772,-1.1320048489,-0.8820971897|O,-0.4
 899160404,-1.4989133916,-1.9886907062|C,1.293354304,-2.2314212196,-0.4
 825109274|C,2.524402943,-1.9913695756,0.1460071367|N,3.3940550708,-2.9
 098102642,0.4994692266|C,3.094263244,-4.1895062056,0.2518253014|C,1.91
 00022395,-4.5688052661,-0.3661698955|C,1.0112473927,-3.5743111093,-0.7
 365037044|Br,3.0595689562,-0.1734736951,0.5509666953|H,0.0686167313,-0
 .4073531803,1.1529229406|H,0.8776126876,-0.2564435145,-1.202439828|H,2
 .005788609,3.4667620904,1.9769775052|H,-0.0314326421,2.096876547,1.773
 4776416|H,-0.0604140626,2.7655487437,-2.4620371866|H,1.9454036493,4.19
 04975634,-2.2489690853|H,3.5698362342,5.0595281999,1.0351788631|H,4.26
 32888722,4.2119044295,-0.3484131195|H,3.3137931862,5.6744979053,-0.602
 973822|H,-2.1846474251,2.0708570076,-0.822754023|H,-1.165381307,-2.123
 4092951,-1.6974672053|H,3.8341751359,-4.921700794,0.5580949745|H,1.695
 8074529,-5.6131305463,-0.5562927683|H,0.0886901712,-3.8447500119,-1.23
 37742112||Version=IA32W-G09RevA.02|State=1-A|HF=-6139.966305|RMSD=2.35
 0e-009|RMSF=2.361e-006|Dipole=1.1340564,1.4582115,-0.670631|Quadrupole
 =-13.9678437,14.971438,-1.0035943,-5.0509007,3.4676474,3.5164207|PG=C0
 1 [X(C17H14Br2N2O3)]||@


 LOGIC IS A SYSTEMATIC METHOD OF COMING TO THE
 WRONG CONCLUSION WITH CONFIDENCE.
 Job cpu time:  0 days 18 hours 43 minutes 53.0 seconds.
 File lengths (MBytes):  RWF=    317 Int=      0 D2E=      0 Chk=     28 Scr=      1
 Normal termination of Gaussian 09 at Thu Jul 11 12:24:29 2019.
